<?xml version="1.0"?>
<!-- Time step: 0 | Time: 0.000000000000e+000 -->
<VTKFile type="UnstructuredGrid" version="0.1" byte_order="LittleEndian">
  <UnstructuredGrid>
    <Piece NumberOfPoints="153" NumberOfCells="100">
      <Points>
        <DataArray type="Float64" NumberOfComponents="3" format="ascii">
          0.000000000000e+000 0.000000000000e+000 0.000000000000e+000
          0.000000000000e+000 0.000000000000e+000 4.000000000000e-002
          2.000000000000e-002 0.000000000000e+000 4.000000000000e-002
          2.000000000000e-002 0.000000000000e+000 0.000000000000e+000
          0.000000000000e+000 0.000000000000e+000 8.000000000000e-002
          2.000000000000e-002 0.000000000000e+000 8.000000000000e-002
          0.000000000000e+000 0.000000000000e+000 1.200000000000e-001
          2.000000000000e-002 0.000000000000e+000 1.200000000000e-001
          0.000000000000e+000 0.000000000000e+000 1.600000000000e-001
          2.000000000000e-002 0.000000000000e+000 1.600000000000e-001
          0.000000000000e+000 0.000000000000e+000 2.000000000000e-001
          2.000000000000e-002 0.000000000000e+000 2.000000000000e-001
          0.000000000000e+000 0.000000000000e+000 2.400000000000e-001
          2.000000000000e-002 0.000000000000e+000 2.400000000000e-001
          0.000000000000e+000 0.000000000000e+000 2.800000000000e-001
          2.000000000000e-002 0.000000000000e+000 2.800000000000e-001
          0.000000000000e+000 0.000000000000e+000 3.200000000000e-001
          2.000000000000e-002 0.000000000000e+000 3.200000000000e-001
          0.000000000000e+000 0.000000000000e+000 3.600000000000e-001
          2.000000000000e-002 0.000000000000e+000 3.600000000000e-001
          0.000000000000e+000 0.000000000000e+000 4.000000000000e-001
          2.000000000000e-002 0.000000000000e+000 4.000000000000e-001
          0.000000000000e+000 0.000000000000e+000 4.400000000000e-001
          2.000000000000e-002 0.000000000000e+000 4.400000000000e-001
          0.000000000000e+000 0.000000000000e+000 4.800000000000e-001
          2.000000000000e-002 0.000000000000e+000 4.800000000000e-001
          0.000000000000e+000 0.000000000000e+000 5.200000000000e-001
          2.000000000000e-002 0.000000000000e+000 5.200000000000e-001
          0.000000000000e+000 0.000000000000e+000 5.600000000000e-001
          2.000000000000e-002 0.000000000000e+000 5.600000000000e-001
          0.000000000000e+000 0.000000000000e+000 6.000000000000e-001
          2.000000000000e-002 0.000000000000e+000 6.000000000000e-001
          0.000000000000e+000 0.000000000000e+000 6.400000000000e-001
          2.000000000000e-002 0.000000000000e+000 6.400000000000e-001
          0.000000000000e+000 0.000000000000e+000 6.800000000000e-001
          2.000000000000e-002 0.000000000000e+000 6.800000000000e-001
          0.000000000000e+000 0.000000000000e+000 7.200000000000e-001
          2.000000000000e-002 0.000000000000e+000 7.200000000000e-001
          0.000000000000e+000 0.000000000000e+000 7.600000000000e-001
          2.000000000000e-002 0.000000000000e+000 7.600000000000e-001
          0.000000000000e+000 0.000000000000e+000 8.000000000000e-001
          2.000000000000e-002 0.000000000000e+000 8.000000000000e-001
          0.000000000000e+000 0.000000000000e+000 8.400000000000e-001
          2.000000000000e-002 0.000000000000e+000 8.400000000000e-001
          0.000000000000e+000 0.000000000000e+000 8.800000000000e-001
          2.000000000000e-002 0.000000000000e+000 8.800000000000e-001
          0.000000000000e+000 0.000000000000e+000 9.200000000000e-001
          2.000000000000e-002 0.000000000000e+000 9.200000000000e-001
          0.000000000000e+000 0.000000000000e+000 9.600000000000e-001
          2.000000000000e-002 0.000000000000e+000 9.600000000000e-001
          0.000000000000e+000 0.000000000000e+000 1.000000000000e+000
          2.000000000000e-002 0.000000000000e+000 1.000000000000e+000
          0.000000000000e+000 0.000000000000e+000 1.040000000000e+000
          2.000000000000e-002 0.000000000000e+000 1.040000000000e+000
          0.000000000000e+000 0.000000000000e+000 1.080000000000e+000
          2.000000000000e-002 0.000000000000e+000 1.080000000000e+000
          0.000000000000e+000 0.000000000000e+000 1.120000000000e+000
          2.000000000000e-002 0.000000000000e+000 1.120000000000e+000
          0.000000000000e+000 0.000000000000e+000 1.160000000000e+000
          2.000000000000e-002 0.000000000000e+000 1.160000000000e+000
          0.000000000000e+000 0.000000000000e+000 1.200000000000e+000
          2.000000000000e-002 0.000000000000e+000 1.200000000000e+000
          0.000000000000e+000 0.000000000000e+000 1.240000000000e+000
          2.000000000000e-002 0.000000000000e+000 1.240000000000e+000
          0.000000000000e+000 0.000000000000e+000 1.280000000000e+000
          2.000000000000e-002 0.000000000000e+000 1.280000000000e+000
          0.000000000000e+000 0.000000000000e+000 1.320000000000e+000
          2.000000000000e-002 0.000000000000e+000 1.320000000000e+000
          0.000000000000e+000 0.000000000000e+000 1.360000000000e+000
          2.000000000000e-002 0.000000000000e+000 1.360000000000e+000
          0.000000000000e+000 0.000000000000e+000 1.400000000000e+000
          2.000000000000e-002 0.000000000000e+000 1.400000000000e+000
          0.000000000000e+000 0.000000000000e+000 1.440000000000e+000
          2.000000000000e-002 0.000000000000e+000 1.440000000000e+000
          0.000000000000e+000 0.000000000000e+000 1.480000000000e+000
          2.000000000000e-002 0.000000000000e+000 1.480000000000e+000
          0.000000000000e+000 0.000000000000e+000 1.520000000000e+000
          2.000000000000e-002 0.000000000000e+000 1.520000000000e+000
          0.000000000000e+000 0.000000000000e+000 1.560000000000e+000
          2.000000000000e-002 0.000000000000e+000 1.560000000000e+000
          0.000000000000e+000 0.000000000000e+000 1.600000000000e+000
          2.000000000000e-002 0.000000000000e+000 1.600000000000e+000
          0.000000000000e+000 0.000000000000e+000 1.640000000000e+000
          2.000000000000e-002 0.000000000000e+000 1.640000000000e+000
          0.000000000000e+000 0.000000000000e+000 1.680000000000e+000
          2.000000000000e-002 0.000000000000e+000 1.680000000000e+000
          0.000000000000e+000 0.000000000000e+000 1.720000000000e+000
          2.000000000000e-002 0.000000000000e+000 1.720000000000e+000
          0.000000000000e+000 0.000000000000e+000 1.760000000000e+000
          2.000000000000e-002 0.000000000000e+000 1.760000000000e+000
          0.000000000000e+000 0.000000000000e+000 1.800000000000e+000
          2.000000000000e-002 0.000000000000e+000 1.800000000000e+000
          0.000000000000e+000 0.000000000000e+000 1.840000000000e+000
          2.000000000000e-002 0.000000000000e+000 1.840000000000e+000
          0.000000000000e+000 0.000000000000e+000 1.880000000000e+000
          2.000000000000e-002 0.000000000000e+000 1.880000000000e+000
          0.000000000000e+000 0.000000000000e+000 1.920000000000e+000
          2.000000000000e-002 0.000000000000e+000 1.920000000000e+000
          0.000000000000e+000 0.000000000000e+000 1.960000000000e+000
          2.000000000000e-002 0.000000000000e+000 1.960000000000e+000
          0.000000000000e+000 0.000000000000e+000 2.000000000000e+000
          2.000000000000e-002 0.000000000000e+000 2.000000000000e+000
          4.000000000000e-002 0.000000000000e+000 4.000000000000e-002
          4.000000000000e-002 0.000000000000e+000 0.000000000000e+000
          4.000000000000e-002 0.000000000000e+000 8.000000000000e-002
          4.000000000000e-002 0.000000000000e+000 1.200000000000e-001
          4.000000000000e-002 0.000000000000e+000 1.600000000000e-001
          4.000000000000e-002 0.000000000000e+000 2.000000000000e-001
          4.000000000000e-002 0.000000000000e+000 2.400000000000e-001
          4.000000000000e-002 0.000000000000e+000 2.800000000000e-001
          4.000000000000e-002 0.000000000000e+000 3.200000000000e-001
          4.000000000000e-002 0.000000000000e+000 3.600000000000e-001
          4.000000000000e-002 0.000000000000e+000 4.000000000000e-001
          4.000000000000e-002 0.000000000000e+000 4.400000000000e-001
          4.000000000000e-002 0.000000000000e+000 4.800000000000e-001
          4.000000000000e-002 0.000000000000e+000 5.200000000000e-001
          4.000000000000e-002 0.000000000000e+000 5.600000000000e-001
          4.000000000000e-002 0.000000000000e+000 6.000000000000e-001
          4.000000000000e-002 0.000000000000e+000 6.400000000000e-001
          4.000000000000e-002 0.000000000000e+000 6.800000000000e-001
          4.000000000000e-002 0.000000000000e+000 7.200000000000e-001
          4.000000000000e-002 0.000000000000e+000 7.600000000000e-001
          4.000000000000e-002 0.000000000000e+000 8.000000000000e-001
          4.000000000000e-002 0.000000000000e+000 8.400000000000e-001
          4.000000000000e-002 0.000000000000e+000 8.800000000000e-001
          4.000000000000e-002 0.000000000000e+000 9.200000000000e-001
          4.000000000000e-002 0.000000000000e+000 9.600000000000e-001
          4.000000000000e-002 0.000000000000e+000 1.000000000000e+000
          4.000000000000e-002 0.000000000000e+000 1.040000000000e+000
          4.000000000000e-002 0.000000000000e+000 1.080000000000e+000
          4.000000000000e-002 0.000000000000e+000 1.120000000000e+000
          4.000000000000e-002 0.000000000000e+000 1.160000000000e+000
          4.000000000000e-002 0.000000000000e+000 1.200000000000e+000
          4.000000000000e-002 0.000000000000e+000 1.240000000000e+000
          4.000000000000e-002 0.000000000000e+000 1.280000000000e+000
          4.000000000000e-002 0.000000000000e+000 1.320000000000e+000
          4.000000000000e-002 0.000000000000e+000 1.360000000000e+000
          4.000000000000e-002 0.000000000000e+000 1.400000000000e+000
          4.000000000000e-002 0.000000000000e+000 1.440000000000e+000
          4.000000000000e-002 0.000000000000e+000 1.480000000000e+000
          4.000000000000e-002 0.000000000000e+000 1.520000000000e+000
          4.000000000000e-002 0.000000000000e+000 1.560000000000e+000
          4.000000000000e-002 0.000000000000e+000 1.600000000000e+000
          4.000000000000e-002 0.000000000000e+000 1.640000000000e+000
          4.000000000000e-002 0.000000000000e+000 1.680000000000e+000
          4.000000000000e-002 0.000000000000e+000 1.720000000000e+000
          4.000000000000e-002 0.000000000000e+000 1.760000000000e+000
          4.000000000000e-002 0.000000000000e+000 1.800000000000e+000
          4.000000000000e-002 0.000000000000e+000 1.840000000000e+000
          4.000000000000e-002 0.000000000000e+000 1.880000000000e+000
          4.000000000000e-002 0.000000000000e+000 1.920000000000e+000
          4.000000000000e-002 0.000000000000e+000 1.960000000000e+000
          4.000000000000e-002 0.000000000000e+000 2.000000000000e+000
        </DataArray>
      </Points>
      <Cells>
        <DataArray type="Int32" Name="connectivity" format="ascii">
          0 1 2 3 
          1 4 5 2 
          4 6 7 5 
          6 8 9 7 
          8 10 11 9 
          10 12 13 11 
          12 14 15 13 
          14 16 17 15 
          16 18 19 17 
          18 20 21 19 
          20 22 23 21 
          22 24 25 23 
          24 26 27 25 
          26 28 29 27 
          28 30 31 29 
          30 32 33 31 
          32 34 35 33 
          34 36 37 35 
          36 38 39 37 
          38 40 41 39 
          40 42 43 41 
          42 44 45 43 
          44 46 47 45 
          46 48 49 47 
          48 50 51 49 
          50 52 53 51 
          52 54 55 53 
          54 56 57 55 
          56 58 59 57 
          58 60 61 59 
          60 62 63 61 
          62 64 65 63 
          64 66 67 65 
          66 68 69 67 
          68 70 71 69 
          70 72 73 71 
          72 74 75 73 
          74 76 77 75 
          76 78 79 77 
          78 80 81 79 
          80 82 83 81 
          82 84 85 83 
          84 86 87 85 
          86 88 89 87 
          88 90 91 89 
          90 92 93 91 
          92 94 95 93 
          94 96 97 95 
          96 98 99 97 
          98 100 101 99 
          3 2 102 103 
          2 5 104 102 
          5 7 105 104 
          7 9 106 105 
          9 11 107 106 
          11 13 108 107 
          13 15 109 108 
          15 17 110 109 
          17 19 111 110 
          19 21 112 111 
          21 23 113 112 
          23 25 114 113 
          25 27 115 114 
          27 29 116 115 
          29 31 117 116 
          31 33 118 117 
          33 35 119 118 
          35 37 120 119 
          37 39 121 120 
          39 41 122 121 
          41 43 123 122 
          43 45 124 123 
          45 47 125 124 
          47 49 126 125 
          49 51 127 126 
          51 53 128 127 
          53 55 129 128 
          55 57 130 129 
          57 59 131 130 
          59 61 132 131 
          61 63 133 132 
          63 65 134 133 
          65 67 135 134 
          67 69 136 135 
          69 71 137 136 
          71 73 138 137 
          73 75 139 138 
          75 77 140 139 
          77 79 141 140 
          79 81 142 141 
          81 83 143 142 
          83 85 144 143 
          85 87 145 144 
          87 89 146 145 
          89 91 147 146 
          91 93 148 147 
          93 95 149 148 
          95 97 150 149 
          97 99 151 150 
          99 101 152 151 
        </DataArray>
        <DataArray type="Int32" Name="offsets" format="ascii">
          4 8 12 16 20 24 28 32 36 40 44 48 52 56 60 64 68 72 76 80 84 88 92 96 100 104 108 112 116 120 124 128 132 136 140 144 148 152 156 160 164 168 172 176 180 184 188 192 196 200 204 208 212 216 220 224 228 232 236 240 244 248 252 256 260 264 268 272 276 280 284 288 292 296 300 304 308 312 316 320 324 328 332 336 340 344 348 352 356 360 364 368 372 376 380 384 388 392 396 400 
        </DataArray>
        <DataArray type="UInt8" Name="types" format="ascii">
          9 9 9 9 9 9 9 9 9 9 9 9 9 9 9 9 9 9 9 9 9 9 9 9 9 9 9 9 9 9 9 9 9 9 9 9 9 9 9 9 9 9 9 9 9 9 9 9 9 9 9 9 9 9 9 9 9 9 9 9 9 9 9 9 9 9 9 9 9 9 9 9 9 9 9 9 9 9 9 9 9 9 9 9 9 9 9 9 9 9 9 9 9 9 9 9 9 9 9 9 
        </DataArray>
      </Cells>
      <PointData Scalars="PRESSURE1">
        <DataArray type="Float64" Name="PRESSURE1" format="ascii">
          -2.150000000000e+004 -2.150000000000e+004 -2.150000000000e+004 -2.150000000000e+004 -2.150000000000e+004 -2.150000000000e+004 -2.150000000000e+004 -2.150000000000e+004 -2.150000000000e+004 -2.150000000000e+004 -2.150000000000e+004 -2.150000000000e+004 -2.150000000000e+004 -2.150000000000e+004 -2.150000000000e+004 -2.150000000000e+004 -2.150000000000e+004 -2.150000000000e+004 -2.150000000000e+004 -2.150000000000e+004 -2.150000000000e+004 -2.150000000000e+004 -2.150000000000e+004 -2.150000000000e+004 -2.150000000000e+004 -2.150000000000e+004 -2.150000000000e+004 -2.150000000000e+004 -2.150000000000e+004 -2.150000000000e+004 -2.150000000000e+004 -2.150000000000e+004 -2.150000000000e+004 -2.150000000000e+004 -2.150000000000e+004 -2.150000000000e+004 -2.150000000000e+004 -2.150000000000e+004 -2.150000000000e+004 -2.150000000000e+004 -2.150000000000e+004 -2.150000000000e+004 -2.150000000000e+004 -2.150000000000e+004 -2.150000000000e+004 -2.150000000000e+004 -2.150000000000e+004 -2.150000000000e+004 -2.150000000000e+004 -2.150000000000e+004 -2.150000000000e+004 -2.150000000000e+004 -2.150000000000e+004 -2.150000000000e+004 -2.150000000000e+004 -2.150000000000e+004 -2.150000000000e+004 -2.150000000000e+004 -2.150000000000e+004 -2.150000000000e+004 -2.150000000000e+004 -2.150000000000e+004 -2.150000000000e+004 -2.150000000000e+004 -2.150000000000e+004 -2.150000000000e+004 -2.150000000000e+004 -2.150000000000e+004 -2.150000000000e+004 -2.150000000000e+004 -2.150000000000e+004 -2.150000000000e+004 -2.150000000000e+004 -2.150000000000e+004 -2.150000000000e+004 -2.150000000000e+004 -2.150000000000e+004 -2.150000000000e+004 -2.150000000000e+004 -2.150000000000e+004 -2.150000000000e+004 -2.150000000000e+004 -2.150000000000e+004 -2.150000000000e+004 -2.150000000000e+004 -2.150000000000e+004 -2.150000000000e+004 -2.150000000000e+004 -2.150000000000e+004 -2.150000000000e+004 -2.150000000000e+004 -2.150000000000e+004 -2.150000000000e+004 -2.150000000000e+004 -2.150000000000e+004 -2.150000000000e+004 -2.150000000000e+004 -2.150000000000e+004 -2.150000000000e+004 -2.150000000000e+004 -2.150000000000e+004 -2.150000000000e+004 -2.150000000000e+004 -2.150000000000e+004 -2.150000000000e+004 -2.150000000000e+004 -2.150000000000e+004 -2.150000000000e+004 -2.150000000000e+004 -2.150000000000e+004 -2.150000000000e+004 -2.150000000000e+004 -2.150000000000e+004 -2.150000000000e+004 -2.150000000000e+004 -2.150000000000e+004 -2.150000000000e+004 -2.150000000000e+004 -2.150000000000e+004 -2.150000000000e+004 -2.150000000000e+004 -2.150000000000e+004 -2.150000000000e+004 -2.150000000000e+004 -2.150000000000e+004 -2.150000000000e+004 -2.150000000000e+004 -2.150000000000e+004 -2.150000000000e+004 -2.150000000000e+004 -2.150000000000e+004 -2.150000000000e+004 -2.150000000000e+004 -2.150000000000e+004 -2.150000000000e+004 -2.150000000000e+004 -2.150000000000e+004 -2.150000000000e+004 -2.150000000000e+004 -2.150000000000e+004 -2.150000000000e+004 -2.150000000000e+004 -2.150000000000e+004 -2.150000000000e+004 -2.150000000000e+004 -2.150000000000e+004 -2.150000000000e+004 -2.150000000000e+004 -2.150000000000e+004 -2.150000000000e+004 -2.150000000000e+004 -2.150000000000e+004 -2.150000000000e+004 
        </DataArray>
        <DataArray type="Float64" Name="SATURATION1" format="ascii">
          4.545259079631e-001 4.545259079631e-001 4.545259079631e-001 4.545259079631e-001 4.545259079631e-001 4.545259079631e-001 4.545259079631e-001 4.545259079631e-001 4.545259079631e-001 4.545259079631e-001 4.545259079631e-001 4.545259079631e-001 4.545259079631e-001 4.545259079631e-001 4.545259079631e-001 4.545259079631e-001 4.545259079631e-001 4.545259079631e-001 4.545259079631e-001 4.545259079631e-001 4.545259079631e-001 4.545259079631e-001 4.545259079631e-001 4.545259079631e-001 4.545259079631e-001 4.545259079631e-001 4.545259079631e-001 4.545259079631e-001 4.545259079631e-001 4.545259079631e-001 4.545259079631e-001 4.545259079631e-001 4.545259079631e-001 4.545259079631e-001 4.545259079631e-001 4.545259079631e-001 4.545259079631e-001 4.545259079631e-001 4.545259079631e-001 4.545259079631e-001 4.545259079631e-001 4.545259079631e-001 4.545259079631e-001 4.545259079631e-001 4.545259079631e-001 4.545259079631e-001 4.545259079631e-001 4.545259079631e-001 4.545259079631e-001 4.545259079631e-001 4.545259079631e-001 4.545259079631e-001 4.545259079631e-001 4.545259079631e-001 4.545259079631e-001 4.545259079631e-001 4.545259079631e-001 4.545259079631e-001 4.545259079631e-001 4.545259079631e-001 4.545259079631e-001 4.545259079631e-001 4.545259079631e-001 4.545259079631e-001 4.545259079631e-001 4.545259079631e-001 4.545259079631e-001 4.545259079631e-001 4.545259079631e-001 4.545259079631e-001 4.545259079631e-001 4.545259079631e-001 4.545259079631e-001 4.545259079631e-001 4.545259079631e-001 4.545259079631e-001 4.545259079631e-001 4.545259079631e-001 4.545259079631e-001 4.545259079631e-001 4.545259079631e-001 4.545259079631e-001 4.545259079631e-001 4.545259079631e-001 4.545259079631e-001 4.545259079631e-001 4.545259079631e-001 4.545259079631e-001 4.545259079631e-001 4.545259079631e-001 4.545259079631e-001 4.545259079631e-001 4.545259079631e-001 4.545259079631e-001 4.545259079631e-001 4.545259079631e-001 4.545259079631e-001 4.545259079631e-001 4.545259079631e-001 4.545259079631e-001 4.545259079631e-001 4.545259079631e-001 4.545259079631e-001 4.545259079631e-001 4.545259079631e-001 4.545259079631e-001 4.545259079631e-001 4.545259079631e-001 4.545259079631e-001 4.545259079631e-001 4.545259079631e-001 4.545259079631e-001 4.545259079631e-001 4.545259079631e-001 4.545259079631e-001 4.545259079631e-001 4.545259079631e-001 4.545259079631e-001 4.545259079631e-001 4.545259079631e-001 4.545259079631e-001 4.545259079631e-001 4.545259079631e-001 4.545259079631e-001 4.545259079631e-001 4.545259079631e-001 4.545259079631e-001 4.545259079631e-001 4.545259079631e-001 4.545259079631e-001 4.545259079631e-001 4.545259079631e-001 4.545259079631e-001 4.545259079631e-001 4.545259079631e-001 4.545259079631e-001 4.545259079631e-001 4.545259079631e-001 4.545259079631e-001 4.545259079631e-001 4.545259079631e-001 4.545259079631e-001 4.545259079631e-001 4.545259079631e-001 4.545259079631e-001 4.545259079631e-001 4.545259079631e-001 4.545259079631e-001 4.545259079631e-001 4.545259079631e-001 4.545259079631e-001 4.545259079631e-001 4.545259079631e-001 
        </DataArray>
      </PointData>
      <CellData>
      </CellData>
    </Piece>
  </UnstructuredGrid>
</VTKFile>
