<?xml version="1.0"?>
<!-- Time step: 1 | Time: 1.000000000000e+000 -->
<VTKFile type="UnstructuredGrid" version="0.1" byte_order="LittleEndian">
  <UnstructuredGrid>
    <Piece NumberOfPoints="11568" NumberOfCells="22758">
      <Points>
        <DataArray type="Float64" NumberOfComponents="3" format="ascii">
          -5.000000000000e+000 -5.000000000000e+000 0.000000000000e+000
          -4.898989898990e+000 -5.000000000000e+000 0.000000000000e+000
          -4.797979797980e+000 -5.000000000000e+000 0.000000000000e+000
          -4.696969696970e+000 -5.000000000000e+000 0.000000000000e+000
          -4.595959595960e+000 -5.000000000000e+000 0.000000000000e+000
          -4.494949494950e+000 -5.000000000000e+000 0.000000000000e+000
          -4.393939393940e+000 -5.000000000000e+000 0.000000000000e+000
          -4.292929292930e+000 -5.000000000000e+000 0.000000000000e+000
          -4.191919191920e+000 -5.000000000000e+000 0.000000000000e+000
          -4.090909090910e+000 -5.000000000000e+000 0.000000000000e+000
          -3.989898989900e+000 -5.000000000000e+000 0.000000000000e+000
          -3.888888888890e+000 -5.000000000000e+000 0.000000000000e+000
          -3.787878787880e+000 -5.000000000000e+000 0.000000000000e+000
          -3.686868686870e+000 -5.000000000000e+000 0.000000000000e+000
          -3.585858585860e+000 -5.000000000000e+000 0.000000000000e+000
          -3.484848484850e+000 -5.000000000000e+000 0.000000000000e+000
          -3.383838383840e+000 -5.000000000000e+000 0.000000000000e+000
          -3.282828282830e+000 -5.000000000000e+000 0.000000000000e+000
          -3.181818181820e+000 -5.000000000000e+000 0.000000000000e+000
          -3.080808080810e+000 -5.000000000000e+000 0.000000000000e+000
          -2.979797979800e+000 -5.000000000000e+000 0.000000000000e+000
          -2.878787878790e+000 -5.000000000000e+000 0.000000000000e+000
          -2.777777777780e+000 -5.000000000000e+000 0.000000000000e+000
          -2.676767676770e+000 -5.000000000000e+000 0.000000000000e+000
          -2.575757575760e+000 -5.000000000000e+000 0.000000000000e+000
          -2.474747474750e+000 -5.000000000000e+000 0.000000000000e+000
          -2.373737373740e+000 -5.000000000000e+000 0.000000000000e+000
          -2.272727272730e+000 -5.000000000000e+000 0.000000000000e+000
          -2.171717171720e+000 -5.000000000000e+000 0.000000000000e+000
          -2.070707070710e+000 -5.000000000000e+000 0.000000000000e+000
          -1.969696969700e+000 -5.000000000000e+000 0.000000000000e+000
          -1.868686868690e+000 -5.000000000000e+000 0.000000000000e+000
          -1.767676767680e+000 -5.000000000000e+000 0.000000000000e+000
          -1.666666666670e+000 -5.000000000000e+000 0.000000000000e+000
          -1.565656565660e+000 -5.000000000000e+000 0.000000000000e+000
          -1.464646464650e+000 -5.000000000000e+000 0.000000000000e+000
          -1.363636363640e+000 -5.000000000000e+000 0.000000000000e+000
          -1.262626262630e+000 -5.000000000000e+000 0.000000000000e+000
          -1.161616161620e+000 -5.000000000000e+000 0.000000000000e+000
          -1.060606060610e+000 -5.000000000000e+000 0.000000000000e+000
          -9.595959596003e-001 -5.000000000000e+000 0.000000000000e+000
          -8.585858585903e-001 -5.000000000000e+000 0.000000000000e+000
          -7.575757575804e-001 -5.000000000000e+000 0.000000000000e+000
          -6.565656565704e-001 -5.000000000000e+000 0.000000000000e+000
          -5.555555555604e-001 -5.000000000000e+000 0.000000000000e+000
          -4.545454545504e-001 -5.000000000000e+000 0.000000000000e+000
          -3.535353535405e-001 -5.000000000000e+000 0.000000000000e+000
          -2.525252525305e-001 -5.000000000000e+000 0.000000000000e+000
          -1.515151515205e-001 -5.000000000000e+000 0.000000000000e+000
          -5.050505051054e-002 -5.000000000000e+000 0.000000000000e+000
          5.050505049955e-002 -5.000000000000e+000 0.000000000000e+000
          1.515151515097e-001 -5.000000000000e+000 0.000000000000e+000
          2.525252525199e-001 -5.000000000000e+000 0.000000000000e+000
          3.535353535301e-001 -5.000000000000e+000 0.000000000000e+000
          4.545454545403e-001 -5.000000000000e+000 0.000000000000e+000
          5.555555555505e-001 -5.000000000000e+000 0.000000000000e+000
          6.565656565607e-001 -5.000000000000e+000 0.000000000000e+000
          7.575757575709e-001 -5.000000000000e+000 0.000000000000e+000
          8.585858585811e-001 -5.000000000000e+000 0.000000000000e+000
          9.595959595913e-001 -5.000000000000e+000 0.000000000000e+000
          1.060606060602e+000 -5.000000000000e+000 0.000000000000e+000
          1.161616161612e+000 -5.000000000000e+000 0.000000000000e+000
          1.262626262622e+000 -5.000000000000e+000 0.000000000000e+000
          1.363636363632e+000 -5.000000000000e+000 0.000000000000e+000
          1.464646464642e+000 -5.000000000000e+000 0.000000000000e+000
          1.565656565653e+000 -5.000000000000e+000 0.000000000000e+000
          1.666666666663e+000 -5.000000000000e+000 0.000000000000e+000
          1.767676767673e+000 -5.000000000000e+000 0.000000000000e+000
          1.868686868683e+000 -5.000000000000e+000 0.000000000000e+000
          1.969696969693e+000 -5.000000000000e+000 0.000000000000e+000
          2.070707070704e+000 -5.000000000000e+000 0.000000000000e+000
          2.171717171714e+000 -5.000000000000e+000 0.000000000000e+000
          2.272727272724e+000 -5.000000000000e+000 0.000000000000e+000
          2.373737373734e+000 -5.000000000000e+000 0.000000000000e+000
          2.474747474744e+000 -5.000000000000e+000 0.000000000000e+000
          2.575757575755e+000 -5.000000000000e+000 0.000000000000e+000
          2.676767676765e+000 -5.000000000000e+000 0.000000000000e+000
          2.777777777775e+000 -5.000000000000e+000 0.000000000000e+000
          2.878787878785e+000 -5.000000000000e+000 0.000000000000e+000
          2.979797979795e+000 -5.000000000000e+000 0.000000000000e+000
          3.080808080806e+000 -5.000000000000e+000 0.000000000000e+000
          3.181818181816e+000 -5.000000000000e+000 0.000000000000e+000
          3.282828282826e+000 -5.000000000000e+000 0.000000000000e+000
          3.383838383836e+000 -5.000000000000e+000 0.000000000000e+000
          3.484848484847e+000 -5.000000000000e+000 0.000000000000e+000
          3.585858585857e+000 -5.000000000000e+000 0.000000000000e+000
          3.686868686867e+000 -5.000000000000e+000 0.000000000000e+000
          3.787878787877e+000 -5.000000000000e+000 0.000000000000e+000
          3.888888888888e+000 -5.000000000000e+000 0.000000000000e+000
          3.989898989898e+000 -5.000000000000e+000 0.000000000000e+000
          4.090909090908e+000 -5.000000000000e+000 0.000000000000e+000
          4.191919191918e+000 -5.000000000000e+000 0.000000000000e+000
          4.292929292928e+000 -5.000000000000e+000 0.000000000000e+000
          4.393939393939e+000 -5.000000000000e+000 0.000000000000e+000
          4.494949494949e+000 -5.000000000000e+000 0.000000000000e+000
          4.595959595959e+000 -5.000000000000e+000 0.000000000000e+000
          4.696969696969e+000 -5.000000000000e+000 0.000000000000e+000
          4.797979797980e+000 -5.000000000000e+000 0.000000000000e+000
          4.898989898990e+000 -5.000000000000e+000 0.000000000000e+000
          5.000000000000e+000 -5.000000000000e+000 0.000000000000e+000
          5.000000000000e+000 -4.898989898990e+000 0.000000000000e+000
          5.000000000000e+000 -4.797979797980e+000 0.000000000000e+000
          5.000000000000e+000 -4.696969696970e+000 0.000000000000e+000
          5.000000000000e+000 -4.595959595960e+000 0.000000000000e+000
          5.000000000000e+000 -4.494949494950e+000 0.000000000000e+000
          5.000000000000e+000 -4.393939393940e+000 0.000000000000e+000
          5.000000000000e+000 -4.292929292930e+000 0.000000000000e+000
          5.000000000000e+000 -4.191919191920e+000 0.000000000000e+000
          5.000000000000e+000 -4.090909090910e+000 0.000000000000e+000
          5.000000000000e+000 -3.989898989900e+000 0.000000000000e+000
          5.000000000000e+000 -3.888888888890e+000 0.000000000000e+000
          5.000000000000e+000 -3.787878787880e+000 0.000000000000e+000
          5.000000000000e+000 -3.686868686870e+000 0.000000000000e+000
          5.000000000000e+000 -3.585858585860e+000 0.000000000000e+000
          5.000000000000e+000 -3.484848484850e+000 0.000000000000e+000
          5.000000000000e+000 -3.383838383840e+000 0.000000000000e+000
          5.000000000000e+000 -3.282828282830e+000 0.000000000000e+000
          5.000000000000e+000 -3.181818181820e+000 0.000000000000e+000
          5.000000000000e+000 -3.080808080810e+000 0.000000000000e+000
          5.000000000000e+000 -2.979797979800e+000 0.000000000000e+000
          5.000000000000e+000 -2.878787878790e+000 0.000000000000e+000
          5.000000000000e+000 -2.777777777780e+000 0.000000000000e+000
          5.000000000000e+000 -2.676767676770e+000 0.000000000000e+000
          5.000000000000e+000 -2.575757575760e+000 0.000000000000e+000
          5.000000000000e+000 -2.474747474750e+000 0.000000000000e+000
          5.000000000000e+000 -2.373737373740e+000 0.000000000000e+000
          5.000000000000e+000 -2.272727272730e+000 0.000000000000e+000
          5.000000000000e+000 -2.171717171720e+000 0.000000000000e+000
          5.000000000000e+000 -2.070707070710e+000 0.000000000000e+000
          5.000000000000e+000 -1.969696969700e+000 0.000000000000e+000
          5.000000000000e+000 -1.868686868690e+000 0.000000000000e+000
          5.000000000000e+000 -1.767676767680e+000 0.000000000000e+000
          5.000000000000e+000 -1.666666666670e+000 0.000000000000e+000
[...]
      <PointData Scalars="PRESSURE1">
        <DataArray type="Float64" Name="PRESSURE1" format="ascii">
          4.964650000000e+005 4.862344860490e+005 4.760041848234e+005 4.657742739982e+005 4.555449413749e+005 4.453165445648e+005 4.350891156382e+005 4.248628405369e+005 4.146381429071e+005 4.044150850417e+005 3.941939552606e+005 3.839749629492e+005 3.737584206794e+005 3.635445657411e+005 3.533336357303e+005 3.431259582251e+005 3.329215471026e+005 3.227210977408e+005 3.125246972418e+005 3.023326361491e+005 2.921453139452e+005 2.819628697304e+005 2.717857444307e+005 2.616144100912e+005 2.514490865407e+005 2.412895222934e+005 2.311372310589e+005 2.209913170354e+005 2.108528894445e+005 2.007221274065e+005 1.905988212280e+005 1.804837824908e+005 1.703773733508e+005 1.602793083219e+005 1.501900361521e+005 1.401097353219e+005 1.300382478490e+005 1.199758667970e+005 1.099236073713e+005 9.987987175120e+004 8.984527325286e+004 7.982036711264e+004 6.980439250177e+004 5.979820438152e+004 4.980014886506e+004 3.981056638428e+004 2.982924883360e+004 1.985625346086e+004 9.891483642887e+003 -6.660915630878e+001 -1.001718666618e+004 -1.996160766753e+004 -2.989964291942e+004 -3.983195276507e+004 -4.975914112487e+004 -5.968177889203e+004 -6.959988755650e+004 -7.951459352340e+004 -8.942592595869e+004 -9.933457071143e+004 -1.092409554508e+005 -1.191455853234e+005 -1.290488631204e+005 -1.389512295154e+005 -1.488530712713e+005 -1.587548230376e+005 -1.686568591649e+005 -1.785594569240e+005 -1.884628912180e+005 -1.983675425680e+005 -2.082737037764e+005 -2.181815473484e+005 -2.280911107097e+005 -2.380027911782e+005 -2.479165460015e+005 -2.578327054825e+005 -2.677512235592e+005 -2.776721869330e+005 -2.875956943265e+005 -2.975217780192e+005 -3.074502509881e+005 -3.173812860130e+005 -3.273148275019e+005 -3.372507715720e+005 -3.471891649651e+005 -3.571297171163e+005 -3.670723389241e+005 -3.770171768304e+005 -3.869639998222e+005 -3.969126174742e+005 -4.068627759696e+005 -4.168146297603e+005 -4.267678233296e+005 -4.367222843629e+005 -4.466777942024e+005 -4.566341489313e+005 -4.665912253083e+005 -4.765488618399e+005 -4.865068422965e+005 -4.964650000000e+005 -4.964650000000e+005 -4.964650000000e+005 -4.964650000000e+005 -4.964650000000e+005 -4.964650000000e+005 -4.964650000000e+005 -4.964650000000e+005 -4.964650000000e+005 -4.964650000000e+005 -4.964650000000e+005 -4.964650000000e+005 -4.964650000000e+005 -4.964650000000e+005 -4.964650000000e+005 -4.964650000000e+005 -4.964650000000e+005 -4.964650000000e+005 -4.964650000000e+005 -4.964650000000e+005 -4.964650000000e+005 -4.964650000000e+005 -4.964650000000e+005 -4.964650000000e+005 -4.964650000000e+005 -4.964650000000e+005 -4.964650000000e+005 -4.964650000000e+005 -4.964650000000e+005 -4.964650000000e+005 -4.964650000000e+005 -4.964650000000e+005 -4.964650000000e+005 -4.964650000000e+005 -4.964650000000e+005 -4.964650000000e+005 -4.964650000000e+005 -4.964650000000e+005 -4.964650000000e+005 -4.964650000000e+005 -4.964650000000e+005 -4.964650000000e+005 -4.964650000000e+005 -4.964650000000e+005 -4.964650000000e+005 -4.964650000000e+005 -4.964650000000e+005 -4.964650000000e+005 -4.964650000000e+005 -4.964650000000e+005 -4.964650000000e+005 -4.964650000000e+005 -4.964650000000e+005 -4.964650000000e+005 -4.964650000000e+005 -4.964650000000e+005 -4.964650000000e+005 -4.964650000000e+005 -4.964650000000e+005 -4.964650000000e+005 -4.964650000000e+005 -4.964650000000e+005 -4.964650000000e+005 -4.964650000000e+005 -4.964650000000e+005 -4.964650000000e+005 -4.964650000000e+005 -4.964650000000e+005 -4.964650000000e+005 -4.964650000000e+005 -4.964650000000e+005 -4.964650000000e+005 -4.964650000000e+005 -4.964650000000e+005 -4.964650000000e+005 -4.964650000000e+005 -4.964650000000e+005 -4.964650000000e+005 -4.964650000000e+005 -4.964650000000e+005 -4.964650000000e+005 -4.964650000000e+005 -4.964650000000e+005 -4.964650000000e+005 -4.964650000000e+005 -4.964650000000e+005 -4.964650000000e+005 -4.964650000000e+005 -4.964650000000e+005 -4.964650000000e+005 -4.964650000000e+005 -4.964650000000e+005 -4.964650000000e+005 -4.964650000000e+005 -4.964650000000e+005 -4.964650000000e+005 -4.964650000000e+005 -4.964650000000e+005 -4.964650000000e+005 -4.964650000000e+005 -4.862345688578e+005 -4.760043478692e+005 -4.657745279934e+005 -4.555453481759e+005 -4.453169419782e+005 -4.350895357852e+005 -4.248634511462e+005 -4.146388016267e+005 -4.044158490270e+005 -3.941948327105e+005 -3.839759113793e+005 -3.737593756437e+005 -3.635455775096e+005 -3.533345675206e+005 -3.431270959562e+005 -3.329228800216e+005 -3.227223388407e+005 -3.125260139236e+005 -3.023338952974e+005 -2.921466240146e+005 -2.819643598192e+005 -2.717872200918e+005 -2.616157075865e+005 -2.514501607458e+005 -2.412910933518e+005 -2.311387208284e+005 -2.209930783721e+005 -2.108544139999e+005 -2.007240505208e+005 -1.906005827246e+005 -1.804852682422e+005 -1.703785849522e+005 -1.602805896662e+005 -1.501916305620e+005 -1.401106887666e+005 -1.300395692809e+005 -1.199769810802e+005 -1.099240920393e+005 -9.988008962032e+004 -8.984579995643e+004 -7.982097441646e+004 -6.980495010080e+004 -5.979818255644e+004 -4.979996876986e+004 -3.981030041422e+004 -2.982938316127e+004 -1.985600918998e+004 -9.890810099312e+003 6.682644816758e+001 1.001760789228e+004 1.996194512254e+004 2.990043508903e+004 3.983311306560e+004 4.976030680712e+004 5.968295787506e+004 6.960134771766e+004 7.951599402497e+004 8.942746341234e+004 9.933624507709e+004 1.092427218221e+005 1.191474122775e+005 1.290507168501e+005 1.389531321318e+005 1.488550592986e+005 1.587568520897e+005 1.686588866648e+005 1.785615281104e+005 1.884650324893e+005 1.983696996906e+005 2.082758135789e+005 2.181835386886e+005 2.280931997364e+005 2.380047898914e+005 2.479186433308e+005 2.578348642655e+005 2.677532600572e+005 2.776740386191e+005 2.875976604017e+005 2.975236262396e+005 3.074520320709e+005 3.173829232703e+005 3.273164193675e+005 3.372523551965e+005 3.471905713628e+005 3.571310153060e+005 3.670736590088e+005 3.770184152626e+005 3.869651120440e+005 3.969136093764e+005 4.068637575471e+005 4.168154536715e+005 4.267685768369e+005 4.367229356302e+005 4.466783435375e+005 4.566345667594e+005 4.665915479995e+005 4.765490561830e+005 4.865069434418e+005 4.964650000000e+005 4.964650000000e+005 4.964650000000e+005 4.964650000000e+005 4.964650000000e+005 4.964650000000e+005 4.964650000000e+005 4.964650000000e+005 4.964650000000e+005 4.964650000000e+005 4.964650000000e+005 4.964650000000e+005 4.964650000000e+005 4.964650000000e+005 4.964650000000e+005 4.964650000000e+005 4.964650000000e+005 4.964650000000e+005 4.964650000000e+005 4.964650000000e+005 4.964650000000e+005 4.964650000000e+005 4.964650000000e+005 4.964650000000e+005 4.964650000000e+005 4.964650000000e+005 4.964650000000e+005 4.964650000000e+005 4.964650000000e+005 4.964650000000e+005 4.964650000000e+005 4.964650000000e+005 4.964650000000e+005 4.964650000000e+005 4.964650000000e+005 4.964650000000e+005 4.964650000000e+005 4.964650000000e+005 4.964650000000e+005 4.964650000000e+005 4.964650000000e+005 4.964650000000e+005 4.964650000000e+005 4.964650000000e+005 4.964650000000e+005 4.964650000000e+005 4.964650000000e+005 4.964650000000e+005 4.964650000000e+005 4.964650000000e+005 4.964650000000e+005 4.964650000000e+005 4.964650000000e+005 4.964650000000e+005 4.964650000000e+005 4.964650000000e+005 4.964650000000e+005 4.964650000000e+005 4.964650000000e+005 4.964650000000e+005 4.964650000000e+005 4.964650000000e+005 4.964650000000e+005 4.964650000000e+005 4.964650000000e+005 4.964650000000e+005 4.964650000000e+005 4.964650000000e+005 4.964650000000e+005 4.964650000000e+005 4.964650000000e+005 4.964650000000e+005 4.964650000000e+005 4.964650000000e+005 4.964650000000e+005 4.964650000000e+005 4.964650000000e+005 4.964650000000e+005 4.964650000000e+005 4.964650000000e+005 4.964650000000e+005 4.964650000000e+005 4.964650000000e+005 4.964650000000e+005 4.964650000000e+005 4.964650000000e+005 4.964650000000e+005 4.964650000000e+005 4.964650000000e+005 4.964650000000e+005 4.964650000000e+005 4.964650000000e+005 4.964650000000e+005 4.964650000000e+005 4.964650000000e+005 4.964650000000e+005 4.964650000000e+005 4.964650000000e+005 4.964650000000e+005 1.750616170584e+004 1.658986036851e+004 1.530991571707e+004 1.379397123328e+004 1.210031727562e+004 1.027051731836e+004 8.340405144780e+003 6.333081576040e+003 4.272331001287e+003 2.176676007466e+003 6.376676397806e+001 -2.049191404390e+003 -4.145452914387e+003 -6.206304214848e+003 -8.211203661912e+003 -1.013855204300e+004 -1.196406689091e+004 -1.365335239869e+004 -1.516442444971e+004 -1.642622083097e+004 -1.733123744234e+004 -4.874275411782e+005 4.777909404149e+005 4.518059416713e+005 4.452991408136e+005 4.538278298539e+005 4.546760951333e+005 4.518771824289e+005 4.431787371146e+005 4.752150529976e+005 4.649117692740e+005 4.726297697933e+005 4.540210358114e+005 4.444480143534e+005 4.462223478510e+005 4.645271323697e+005 4.701448067268e+005 4.716743837219e+005 -4.712145541553e+005 -4.815126762908e+005 4.650622989749e+005 4.610064035346e+005 4.573214608678e+005 4.485159716352e+005 4.585032466233e+005 4.549758583102e+005 4.470937968705e+005 4.472607474140e+005 4.356917963816e+005 -4.793193990686e+005 -4.850465843293e+005 4.628561690160e+005 4.680729685364e+005 4.790024474716e+005 4.734082405148e+005 -4.869399377413e+005 -4.692397913317e+005 -4.760399149720e+005 -4.667792201001e+005 4.751430911801e+005 4.658569566138e+005 4.803033618355e+005 4.620533252710e+005 4.623006737446e+005 4.842132485115e+005 4.826264490752e+005 -4.611767733571e+005 -4.582203450706e+005 -4.682195823797e+005 -4.702848612269e+005 -4.491412874923e+005 4.862686112661e+005 4.698611131254e+005 -4.792410524784e+005 -4.797984496115e+005 4.602746789547e+005 4.877507859611e+005 4.898944348805e+005 4.369785080427e+005 4.419936367382e+005 4.789920661511e+005 4.731599633122e+005 4.799957472234e+005 4.662776924823e+005 4.561701465039e+005 4.367864578477e+005 -4.667839848863e+005 -4.578780256146e+005 -4.585543491063e+005 3.553690621249e+005 3.533773466832e+005 3.455124747987e+005 -4.287561162505e+005 -4.196855463928e+005 -4.330257068967e+005 -4.156889660338e+005 -4.234017149433e+005 -4.258186692344e+005 2.238503161228e+005 4.346933528230e+005 4.307565470236e+005 3.734459080185e+005 3.750456623547e+005 3.838036951918e+005 3.299563176135e+005 3.343529726849e+005 3.418725962531e+005 -3.756657027272e+005 -3.652915723454e+005 -3.735811615437e+005 -4.854063896760e+005 3.444345266792e+005 -4.120192018414e+005 -4.002112949754e+005 -4.045536346663e+005 -3.321415114515e+005 -3.408938655011e+005 -3.347147869413e+005 4.330581355018e+005 4.370403783641e+005 4.245179974274e+005 4.006832024005e+005 3.901776896325e+005 3.959012768081e+005 3.588448978544e+004 4.073445369829e+004 4.691871064710e+004 4.653640179914e+005 4.657934390159e+005 4.562683041331e+005 4.258285989893e+005 4.172694494674e+005 4.151820196610e+005 3.610382461332e+005 3.693675578577e+005 3.606577035456e+005 4.707443549614e+005 4.740129009341e+005 4.630291665851e+005 3.637769799853e+005 3.705522209049e+005 4.562815450391e+005 4.457020198881e+005 4.522413012997e+005 -4.199185281452e+005 -4.113909982218e+005 -4.289651362586e+005 -4.655994365070e+005 -4.687817323585e+005 -4.611664333912e+005 -4.565529944111e+005 -4.624442184497e+005 -4.640371994153e+005 3.787047993731e+005 3.888037385655e+005 3.819960500693e+005 4.236423812848e+005 4.271141047678e+005 4.168886687157e+005 3.845242302447e+005 3.787692478273e+005 3.522329098806e+005 3.538827114302e+005 3.608857527361e+005 3.588973725680e+005 -3.985495855687e+005 -3.933522485196e+005 -4.027186298255e+005 4.383167197757e+005 3.848128718964e+005 3.898781428595e+005 4.198217592536e+005 -4.634932966160e+005 -4.586462324349e+005 -4.691544508024e+005 3.914336454214e+005 3.991517002351e+005 4.010404052759e+005 -4.376795653565e+005 -4.410337495502e+005 -4.186201042585e+005 -4.858580843887e+005 -4.530315322331e+005 -4.520283492580e+005 -4.419197106877e+005 4.599060946251e+005 4.509157430716e+005 4.495640063308e+005 3.934073668708e+005 3.925092972799e+005 4.011820040552e+005 4.287557855614e+005 -4.729328456277e+005 -3.983511782098e+005 -4.062884132010e+005 -4.050559651757e+005 3.738251575450e+005 3.684206135320e+005 -3.312833486953e+005 -3.429980792212e+005 -3.348117049006e+005 4.059049771191e+005 4.055149417976e+005 4.140393515909e+005 -4.861888211815e+005 -4.764236411213e+005 4.166606111081e+005 4.239036970001e+005 4.186500122110e+005 3.701070470374e+005 3.718750168816e+005 3.631007855586e+005 3.502335888841e+005 3.939329816974e+005 3.834479593288e+005 -4.481838896786e+005 -4.578699186285e+005 -4.563234243175e+005 -3.353833616187e+005 4.129250475089e+005 3.906031881433e+005 4.371601850077e+005 4.447020105124e+005 -4.565725419034e+005 -4.632321245707e+005 -4.612751333058e+005 4.372659741122e+005 4.308390910151e+005 4.247472192209e+005 3.794225841799e+005 -4.569862334934e+005 -4.531768180940e+005 -4.549753096066e+005 4.749320719988e+005 3.667868517485e+005 3.949229602525e+005 4.058027468336e+005 3.434305718362e+005 4.082655290452e+005 3.977896017714e+005 -3.574872799529e+005 -3.465185867459e+005 -3.506865881486e+005 -4.594040198173e+005 4.795446279711e+005 4.724711945852e+005 4.243065203439e+005 4.327628266947e+005 -3.456031161303e+005 4.209540446154e+005 4.106486206239e+005 4.163125400363e+005 4.433164007364e+005 4.532782068040e+005 -4.725341846404e+005 4.104432891568e+005 4.009283187917e+005 4.088795522772e+005 4.239358565921e+005 3.288663473253e+005 3.326894833016e+005 3.213139905548e+005 4.014194912647e+005 3.921951146910e+005 4.411540013612e+005 -3.526119794265e+005 3.976481998189e+005 4.350058234974e+005 -4.297975400307e+005 -4.347044478285e+005 -4.262470361400e+005 4.395350589225e+005 4.512412721093e+005 4.501922768625e+005 4.752447731350e+005 4.711930366003e+005 4.155103098135e+005 4.092974517288e+005 4.192511106859e+005 -4.773141677489e+005 -4.682505359437e+005 -4.066533509345e+005 -4.136118503705e+005 4.890788905814e+005 4.360958678445e+005 5.788686733948e+002 -2.293688818446e+003 5.477033169904e+003 4.896959741957e+005 4.011595013957e+005 -4.741713080539e+005 -3.636783539513e+005 -3.654136699006e+005 4.898931651800e+005 3.169082967063e+005 3.231599543710e+005 3.120240654098e+005 4.311796234470e+005 4.432030698855e+005 4.276424357449e+005 -4.151845423241e+005 -4.073909316598e+005 4.571376826211e+005 4.276930545200e+005 4.573889981273e+005 4.546643411301e+005 -4.164891731864e+005 5.461402736077e+003 1.793605639402e+004 1.209541971426e+004 -3.197060076580e+004 -3.139074448854e+004 -4.037131990971e+004 4.467180632187e+005 4.576937730813e+005 3.261795911570e+005 4.145358984271e+005 1.944584841606e+003 -7.527336716718e+003 4.887796207610e+005 -3.825750548453e+005 -3.786717909434e+005 -3.878572332643e+005 1.765265996907e+004 2.617634568081e+004 1.544370092629e+004 2.883665060215e+004 -3.913768549444e+005 -3.817748589970e+005 -3.915764410577e+005 -3.830166802879e+005 -4.487204736681e+005 -4.457851775267e+005 1.133500345615e+004 2.287406391076e+004 1.646352667654e+004 -4.585241554244e+005 -4.690022056710e+005 -4.047963327280e+005 -3.567308379987e+005 -3.639838652494e+005 -3.539517642890e+005 -4.467165203762e+005 -4.391109913860e+005 3.612868817451e+005 -4.547611552084e+005 -4.622151823305e+005 4.663344411007e+005 4.199754053172e+005 -4.295331124936e+005 -4.370338984363e+005 -4.420160024534e+005 3.981445435814e+005 -3.590243966294e+005 -4.453591478960e+005 -4.519905019396e+005 3.491387596476e+005 4.823114170226e+005 4.809033565826e+005 4.330159601987e+005 4.221812882765e+005 4.068611684895e+005 4.159494313160e+005 -4.132322886769e+005 -4.058832497766e+005 -4.493700779530e+005 3.354232136414e+005 4.385232187604e+005 -3.551520335140e+005 4.258378241172e+005 -4.578280466603e+005 -4.564901628498e+005 -4.529298611126e+005 -4.445429198950e+005 -4.638349228153e+005 -4.656760192683e+005 4.282766286360e+005 -4.889388576275e+005 -4.848084859669e+005 -4.789358179183e+005 4.874214827245e+005 4.858462278366e+005 -3.797491284486e+005 -4.490053334929e+005 -4.856837668576e+005 -4.864724838386e+005 -4.852905461695e+005 -4.879883400539e+005 -4.796296671367e+005 4.875783658176e+005 -4.870232215141e+005 4.090443928018e+005 -4.080023627400e+005 3.740234532277e+005 4.881774617487e+005 3.536896650828e+005 3.320435402088e+005 4.892377203986e+005 4.855619310013e+005 -2.867427568865e+005 -4.878869237428e+005 1.942501937026e+005 -4.884970607454e+005 -2.242680266754e+005 2.144597142772e+005 2.070558889624e+005 -4.844904236878e+005 4.893647930877e+005 -4.346341715538e+004 5.794302708393e+002 1.068487656995e+004 -1.009137878302e+004 -4.880911709129e+005 -4.677025620254e+005 -4.739496098307e+005 -4.670228653862e+005 -4.746724014295e+005 -4.658707751617e+005 4.680513145380e+005 4.790010292162e+005 -4.542418569790e+005 3.972576248942e+005 3.999664040776e+005 3.912598734901e+005 3.860390436740e+005 -4.801633719859e+005 -4.341940246540e+005 -4.149139829307e+005 4.873943412513e+005 2.522575704598e+005 2.498331888722e+005 2.396283592331e+005 -4.393114700875e+005 -4.446244146831e+005 -4.339045154477e+005 -1.602480074284e+004 -1.836269923184e+004 -8.716760022508e+003 -4.645216598951e+004 -5.102737864316e+004 -5.567663205188e+004 -3.793864081793e+005 -3.852628501409e+005 -3.739376742411e+005 4.830402069523e+004 5.867790059503e+004 5.559890083931e+004 6.568995403022e+004 -1.843795176395e+005 -1.931691755457e+005 -1.919556202826e+005 -1.400056824311e+004 -2.148407943333e+004 -2.527638020704e+004 -8.367559018323e+003 -3.987259220267e+003 1.890310600602e+003 -1.827519190009e+005 -1.876852162403e+005 -1.795577281025e+005 -2.155508729643e+005 -2.195805912969e+005 -2.094385742357e+005 -4.163130231685e+005 4.185372040767e+005 4.114863857859e+005 4.139009721787e+005 -3.296492223415e+005 -3.304627555867e+005 -3.201623202982e+005 3.127310894000e+005 3.199033507327e+005 3.197959250580e+005 3.081554196434e+005 -1.355560579220e+005 -1.450516118074e+005 -1.359811723736e+005 1.417420142701e+005 1.345112893670e+005 1.424340771300e+005 2.222803899199e+005 2.321280480040e+005 2.337822652550e+005 2.646369389247e+004 2.294636928553e+004 3.242572851378e+004 3.478653028644e+005 3.465152938491e+005 3.381420746991e+005 -3.110787837490e+005 -3.004607512259e+005 -3.057223101121e+005 -3.487733297914e+005 -3.362095916981e+005 -3.442489423504e+005 -5.456016021308e+004 -4.830658858707e+004 -5.954426609496e+004 -4.897105567933e+004 -5.290469728748e+004 -5.840643479014e+004 -1.870731630407e+004 -2.716898601709e+004 -1.900516231810e+004 -2.163515134099e+004 4.330670131191e+005 4.250944024924e+005 4.231002618626e+005 1.177598282938e+005 1.291994340344e+005 1.239900916239e+005 3.215934097946e+005 3.192233009176e+005 3.110032281062e+005 -1.018689463218e+005 -9.393923228205e+004 -9.147010146705e+004 -2.027853933317e+005 2.713525086724e+005 2.633414631092e+005 2.606838926016e+005 3.352149328424e+005 1.025581340361e+005 1.005139799228e+005 1.107302608006e+005 4.657766017656e+005 4.769608285143e+005 4.705587755290e+005 2.073711374361e+005 1.996647484888e+005 2.081732809030e+005 -7.683377831146e+004 -7.407439618416e+004 -8.398879890141e+004 -2.055998986547e+005 -2.060332194488e+005 -1.970345293951e+005 -4.728769839079e+005 -4.631511799743e+005 -4.627085150253e+005 -4.710781812282e+005 2.973826306902e+005 3.006030276705e+005 2.897856269735e+005 -3.183568737339e+005 -3.271672915565e+005 -3.290925240007e+005 5.069237537774e+004 3.768225898684e+004 4.413696317431e+004 1.793526885421e+004 5.857594345251e+003 8.963284169469e+003 2.256072535811e+005 2.225202799254e+005 2.165722562303e+005 2.336473481370e+005 1.149526494059e+005 1.220306581949e+005 1.127851589316e+005 -4.263473373427e+004 -3.710625081915e+004 -3.195101678360e+004 2.077727501787e+005 2.054823269294e+005 1.970875796927e+005 -3.610412396573e+003 6.701040799176e+002 -1.101409473050e+004 -2.635492215859e+005 -2.686590375775e+005 -2.598252109580e+005 4.806606008269e+005 3.666276063362e+005 3.786220672855e+005 3.754252006018e+