<?xml version="1.0"?>
<!-- Time step: 0 | Time: 0.000000000000e+000 -->
<VTKFile type="UnstructuredGrid" version="0.1" byte_order="LittleEndian">
  <UnstructuredGrid>
    <Piece NumberOfPoints="11568" NumberOfCells="22758">
      <Points>
        <DataArray type="Float64" NumberOfComponents="3" format="ascii">
          -5.000000000000e+000 -5.000000000000e+000 0.000000000000e+000
          -4.898989898990e+000 -5.000000000000e+000 0.000000000000e+000
          -4.797979797980e+000 -5.000000000000e+000 0.000000000000e+000
          -4.696969696970e+000 -5.000000000000e+000 0.000000000000e+000
          -4.595959595960e+000 -5.000000000000e+000 0.000000000000e+000
          -4.494949494950e+000 -5.000000000000e+000 0.000000000000e+000
          -4.393939393940e+000 -5.000000000000e+000 0.000000000000e+000
          -4.292929292930e+000 -5.000000000000e+000 0.000000000000e+000
          -4.191919191920e+000 -5.000000000000e+000 0.000000000000e+000
          -4.090909090910e+000 -5.000000000000e+000 0.000000000000e+000
          -3.989898989900e+000 -5.000000000000e+000 0.000000000000e+000
          -3.888888888890e+000 -5.000000000000e+000 0.000000000000e+000
          -3.787878787880e+000 -5.000000000000e+000 0.000000000000e+000
          -3.686868686870e+000 -5.000000000000e+000 0.000000000000e+000
          -3.585858585860e+000 -5.000000000000e+000 0.000000000000e+000
          -3.484848484850e+000 -5.000000000000e+000 0.000000000000e+000
          -3.383838383840e+000 -5.000000000000e+000 0.000000000000e+000
          -3.282828282830e+000 -5.000000000000e+000 0.000000000000e+000
          -3.181818181820e+000 -5.000000000000e+000 0.000000000000e+000
          -3.080808080810e+000 -5.000000000000e+000 0.000000000000e+000
          -2.979797979800e+000 -5.000000000000e+000 0.000000000000e+000
          -2.878787878790e+000 -5.000000000000e+000 0.000000000000e+000
          -2.777777777780e+000 -5.000000000000e+000 0.000000000000e+000
          -2.676767676770e+000 -5.000000000000e+000 0.000000000000e+000
          -2.575757575760e+000 -5.000000000000e+000 0.000000000000e+000
          -2.474747474750e+000 -5.000000000000e+000 0.000000000000e+000
          -2.373737373740e+000 -5.000000000000e+000 0.000000000000e+000
          -2.272727272730e+000 -5.000000000000e+000 0.000000000000e+000
          -2.171717171720e+000 -5.000000000000e+000 0.000000000000e+000
          -2.070707070710e+000 -5.000000000000e+000 0.000000000000e+000
          -1.969696969700e+000 -5.000000000000e+000 0.000000000000e+000
          -1.868686868690e+000 -5.000000000000e+000 0.000000000000e+000
          -1.767676767680e+000 -5.000000000000e+000 0.000000000000e+000
          -1.666666666670e+000 -5.000000000000e+000 0.000000000000e+000
          -1.565656565660e+000 -5.000000000000e+000 0.000000000000e+000
          -1.464646464650e+000 -5.000000000000e+000 0.000000000000e+000
          -1.363636363640e+000 -5.000000000000e+000 0.000000000000e+000
          -1.262626262630e+000 -5.000000000000e+000 0.000000000000e+000
          -1.161616161620e+000 -5.000000000000e+000 0.000000000000e+000
          -1.060606060610e+000 -5.000000000000e+000 0.000000000000e+000
          -9.595959596003e-001 -5.000000000000e+000 0.000000000000e+000
          -8.585858585903e-001 -5.000000000000e+000 0.000000000000e+000
          -7.575757575804e-001 -5.000000000000e+000 0.000000000000e+000
          -6.565656565704e-001 -5.000000000000e+000 0.000000000000e+000
          -5.555555555604e-001 -5.000000000000e+000 0.000000000000e+000
          -4.545454545504e-001 -5.000000000000e+000 0.000000000000e+000
          -3.535353535405e-001 -5.000000000000e+000 0.000000000000e+000
          -2.525252525305e-001 -5.000000000000e+000 0.000000000000e+000
          -1.515151515205e-001 -5.000000000000e+000 0.000000000000e+000
          -5.050505051054e-002 -5.000000000000e+000 0.000000000000e+000
          5.050505049955e-002 -5.000000000000e+000 0.000000000000e+000
          1.515151515097e-001 -5.000000000000e+000 0.000000000000e+000
          2.525252525199e-001 -5.000000000000e+000 0.000000000000e+000
          3.535353535301e-001 -5.000000000000e+000 0.000000000000e+000
          4.545454545403e-001 -5.000000000000e+000 0.000000000000e+000
          5.555555555505e-001 -5.000000000000e+000 0.000000000000e+000
          6.565656565607e-001 -5.000000000000e+000 0.000000000000e+000
          7.575757575709e-001 -5.000000000000e+000 0.000000000000e+000
          8.585858585811e-001 -5.000000000000e+000 0.000000000000e+000
          9.595959595913e-001 -5.000000000000e+000 0.000000000000e+000
          1.060606060602e+000 -5.000000000000e+000 0.000000000000e+000
          1.161616161612e+000 -5.000000000000e+000 0.000000000000e+000
          1.262626262622e+000 -5.000000000000e+000 0.000000000000e+000
          1.363636363632e+000 -5.000000000000e+000 0.000000000000e+000
          1.464646464642e+000 -5.000000000000e+000 0.000000000000e+000
          1.565656565653e+000 -5.000000000000e+000 0.000000000000e+000
          1.666666666663e+000 -5.000000000000e+000 0.000000000000e+000
          1.767676767673e+000 -5.000000000000e+000 0.000000000000e+000
          1.868686868683e+000 -5.000000000000e+000 0.000000000000e+000
          1.969696969693e+000 -5.000000000000e+000 0.000000000000e+000
          2.070707070704e+000 -5.000000000000e+000 0.000000000000e+000
          2.171717171714e+000 -5.000000000000e+000 0.000000000000e+000
          2.272727272724e+000 -5.000000000000e+000 0.000000000000e+000
          2.373737373734e+000 -5.000000000000e+000 0.000000000000e+000
          2.474747474744e+000 -5.000000000000e+000 0.000000000000e+000
          2.575757575755e+000 -5.000000000000e+000 0.000000000000e+000
          2.676767676765e+000 -5.000000000000e+000 0.000000000000e+000
          2.777777777775e+000 -5.000000000000e+000 0.000000000000e+000
          2.878787878785e+000 -5.000000000000e+000 0.000000000000e+000
          2.979797979795e+000 -5.000000000000e+000 0.000000000000e+000
          3.080808080806e+000 -5.000000000000e+000 0.000000000000e+000
          3.181818181816e+000 -5.000000000000e+000 0.000000000000e+000
          3.282828282826e+000 -5.000000000000e+000 0.000000000000e+000
          3.383838383836e+000 -5.000000000000e+000 0.000000000000e+000
          3.484848484847e+000 -5.000000000000e+000 0.000000000000e+000
          3.585858585857e+000 -5.000000000000e+000 0.000000000000e+000
          3.686868686867e+000 -5.000000000000e+000 0.000000000000e+000
          3.787878787877e+000 -5.000000000000e+000 0.000000000000e+000
          3.888888888888e+000 -5.000000000000e+000 0.000000000000e+000
          3.989898989898e+000 -5.000000000000e+000 0.000000000000e+000
          4.090909090908e+000 -5.000000000000e+000 0.000000000000e+000
          4.191919191918e+000 -5.000000000000e+000 0.000000000000e+000
          4.292929292928e+000 -5.000000000000e+000 0.000000000000e+000
          4.393939393939e+000 -5.000000000000e+000 0.000000000000e+000
          4.494949494949e+000 -5.000000000000e+000 0.000000000000e+000
          4.595959595959e+000 -5.000000000000e+000 0.000000000000e+000
          4.696969696969e+000 -5.000000000000e+000 0.000000000000e+000
          4.797979797980e+000 -5.000000000000e+000 0.000000000000e+000
          4.898989898990e+000 -5.000000000000e+000 0.000000000000e+000
          5.000000000000e+000 -5.000000000000e+000 0.000000000000e+000
          5.000000000000e+000 -4.898989898990e+000 0.000000000000e+000
          5.000000000000e+000 -4.797979797980e+000 0.000000000000e+000
          5.000000000000e+000 -4.696969696970e+000 0.000000000000e+000
          5.000000000000e+000 -4.595959595960e+000 0.000000000000e+000
          5.000000000000e+000 -4.494949494950e+000 0.000000000000e+000
          5.000000000000e+000 -4.393939393940e+000 0.000000000000e+000
          5.000000000000e+000 -4.292929292930e+000 0.000000000000e+000
          5.000000000000e+000 -4.191919191920e+000 0.000000000000e+000
          5.000000000000e+000 -4.090909090910e+000 0.000000000000e+000
          5.000000000000e+000 -3.989898989900e+000 0.000000000000e+000
          5.000000000000e+000 -3.888888888890e+000 0.000000000000e+000
          5.000000000000e+000 -3.787878787880e+000 0.000000000000e+000
          5.000000000000e+000 -3.686868686870e+000 0.000000000000e+000
          5.000000000000e+000 -3.585858585860e+000 0.000000000000e+000
          5.000000000000e+000 -3.484848484850e+000 0.000000000000e+000
          5.000000000000e+000 -3.383838383840e+000 0.000000000000e+000
          5.000000000000e+000 -3.282828282830e+000 0.000000000000e+000
          5.000000000000e+000 -3.181818181820e+000 0.000000000000e+000
          5.000000000000e+000 -3.080808080810e+000 0.000000000000e+000
          5.000000000000e+000 -2.979797979800e+000 0.000000000000e+000
          5.000000000000e+000 -2.878787878790e+000 0.000000000000e+000
          5.000000000000e+000 -2.777777777780e+000 0.000000000000e+000
          5.000000000000e+000 -2.676767676770e+000 0.000000000000e+000
          5.000000000000e+000 -2.575757575760e+000 0.000000000000e+000
          5.000000000000e+000 -2.474747474750e+000 0.000000000000e+000
          5.000000000000e+000 -2.373737373740e+000 0.000000000000e+000
          5.000000000000e+000 -2.272727272730e+000 0.000000000000e+000
          5.000000000000e+000 -2.171717171720e+000 0.000000000000e+000
          5.000000000000e+000 -2.070707070710e+000 0.000000000000e+000
          5.000000000000e+000 -1.969696969700e+000 0.000000000000e+000
          5.000000000000e+000 -1.868686868690e+000 0.000000000000e+000
          5.000000000000e+000 -1.767676767680e+000 0.000000000000e+000
          5.000000000000e+000 -1.666666666670e+000 0.000000000000e+000
[...]
      <PointData Scalars="PRESSURE1">
        <DataArray type="Float64" Name="PRESSURE1" format="ascii">
          0.000000000000e+000 0.000000000000e+000 0.000000000000e+000 0.000000000000e+000 0.000000000000e+000 0.000000000000e+000 0.000000000000e+000 0.000000000000e+000 0.000000000000e+000 0.000000000000e+000 0.000000000000e+000 0.000000000000e+000 0.000000000000e+000 0.000000000000e+000 0.000000000000e+000 0.000000000000e+000 0.000000000000e+000 0.000000000000e+000 0.000000000000e+000 0.000000000000e+000 0.000000000000e+000 0.000000000000e+000 0.000000000000e+000 0.000000000000e+000 0.000000000000e+000 0.000000000000e+000 0.000000000000e+000 0.000000000000e+000 0.000000000000e+000 0.000000000000e+000 0.000000000000e+000 0.000000000000e+000 0.000000000000e+000 0.000000000000e+000 0.000000000000e+000 0.000000000000e+000 0.000000000000e+000 0.000000000000e+000 0.000000000000e+000 0.000000000000e+000 0.000000000000e+000 0.000000000000e+000 0.000000000000e+000 0.000000000000e+000 0.000000000000e+000 0.000000000000e+000 0.000000000000e+000 0.000000000000e+000 0.000000000000e+000 0.000000000000e+000 0.000000000000e+000 0.000000000000e+000 0.000000000000e+000 0.000000000000e+000 0.000000000000e+000 0.000000000000e+000 0.000000000000e+000 0.000000000000e+000 0.000000000000e+000 0.000000000000e+000 0.000000000000e+000 0.000000000000e+000 0.000000000000e+000 0.000000000000e+000 0.000000000000e+000 0.000000000000e+000 0.000000000000e+000 0.000000000000e+000 0.000000000000e+000 0.000000000000e+000 0.000000000000e+000 0.000000000000e+000 0.000000000000e+000 0.000000000000e+000 0.000000000000e+000 0.000000000000e+000 0.000000000000e+000 0.000000000000e+000 0.000000000000e+000 0.000000000000e+000 0.000000000000e+000 0.000000000000e+000 0.000000000000e+000 0.000000000000e+000 0.000000000000e+000 0.000000000000e+000 0.000000000000e+000 0.000000000000e+000 0.000000000000e+000 0.000000000000e+000 0.000000000000e+000 0.000000000000e+000 0.000000000000e+000 0.000000000000e+000 0.000000000000e+000 0.000000000000e+000 0.000000000000e+000 0.000000000000e+000 0.000000000000e+000 0.000000000000e+000 0.000000000000e+000 0.000000000000e+000 0.000000000000e+000 0.000000000000e+000 0.000000000000e+000 0.000000000000e+000 0.000000000000e+000 0.000000000000e+000 0.000000000000e+000 0.000000000000e+000 0.000000000000e+000 0.000000000000e+000 0.000000000000e+000 0.000000000000e+000 0.000000000000e+000 0.000000000000e+000 0.000000000000e+000 0.000000000000e+000 0.000000000000e+000 0.000000000000e+000 0.000000000000e+000 0.000000000000e+000 0.000000000000e+000 0.000000000000e+000 0.000000000000e+000 0.000000000000e+000 0.000000000000e+000 0.000000000000e+000 0.000000000000e+000 0.000000000000e+000 0.000000000000e+000 0.000000000000e+000 0.000000000000e+000 0.000000000000e+000 0.000000000000e+000 0.000000000000e+000 0.000000000000e+000 0.000000000000e+000 0.000000000000e+000 0.000000000000e+000 0.000000000000e+000 0.000000000000e+000 0.000000000000e+000 0.000000000000e+000 0.000000000000e+000 0.000000000000e+000 0.000000000000e+000 0.000000000000e+000 0.000000000000e+000 0.000000000000e+000 0.000000000000e+000 0.000000000000e+000 0.000000000000e+000 0.000000000000e+000 0.000000000000e+000 0.000000000000e+000 0.000000000000e+000 0.000000000000e+000 0.000000000000e+000 0.000000000000e+000 0.000000000000e+000 0.000000000000e+000 0.000000000000e+000 0.000000000000e+000 0.000000000000e+000 0.000000000000e+000 0.000000000000e+000 0.000000000000e+000 0.000000000000e+000 0.000000000000e+000 0.000000000000e+000 0.000000000000e+000 0.000000000000e+000 0.000000000000e+000 0.000000000000e+000 0.000000000000e+000 0.000000000000e+000 0.000000000000e+000 0.000000000000e+000 0.000000000000e+000 0.000000000000e+000 0.000000000000e+000 0.000000000000e+000 0.000000000000e+000 0.000000000000e+000 0.000000000000e+000 0.000000000000e+000 0.000000000000e+000 0.000000000000e+000 0.000000000000e+000 0.000000000000e+000 0.000000000000e+000 0.000000000000e+000 0.000000000000e+000 0.000000000000e+000 0.000000000000e+000 0.000000000000e+000 0.000000000000e+000 0.000000000000e+000 0.000000000000e+000 0.000000000000e+000 0.000000000000e+000 0.000000000000e+000 0.000000000000e+000 0.000000000000e+000 0.000000000000e+000 0.000000000000e+000 0.000000000000e+000 0.000000000000e+000 0.000000000000e+000 0.000000000000e+000 0.000000000000e+000 0.000000000000e+000 0.000000000000e+000 0.000000000000e+000 0.000000000000e+000 0.000000000000e+000 0.000000000000e+000 0.000000000000e+000 0.000000000000e+000 0.000000000000e+000 0.000000000000e+000 0.000000000000e+000 0.000000000000e+000 0.000000000000e+000 0.000000000000e+000 0.000000000000e+000 0.000000000000e+000 0.000000000000e+000 0.000000000000e+000 0.000000000000e+000 0.000000000000e+000 0.000000000000e+000 0.000000000000e+000 0.000000000000e+000 0.000000000000e+000 0.000000000000e+000 0.000000000000e+000 0.000000000000e+000 0.000000000000e+000 0.000000000000e+000 0.000000000000e+000 0.000000000000e+000 0.000000000000e+000 0.000000000000e+000 0.000000000000e+000 0.000000000000e+000 0.000000000000e+000 0.000000000000e+000 0.000000000000e+000 0.000000000000e+000 0.000000000000e+000 0.000000000000e+000 0.000000000000e+000 0.000000000000e+000 0.000000000000e+000 0.000000000000e+000 0.000000000000e+000 0.000000000000e+000 0.000000000000e+000 0.000000000000e+000 0.000000000000e+000 0.000000000000e+000 0.000000000000e+000 0.000000000000e+000 0.000000000000e+000 0.000000000000e+000 0.000000000000e+000 0.000000000000e+000 0.000000000000e+000 0.000000000000e+000 0.000000000000e+000 0.000000000000e+000 0.000000000000e+000 0.000000000000e+000 0.000000000000e+000 0.000000000000e+000 0.000000000000e+000 0.000000000000e+000 0.000000000000e+000 0.000000000000e+000 0.000000000000e+000 0.000000000000e+000 0.000000000000e+000 0.000000000000e+000 0.000000000000e+000 0.000000000000e+000 0.000000000000e+000 0.000000000000e+000 0.000000000000e+000 0.000000000000e+000 0.000000000000e+000 0.000000000000e+000 0.000000000000e+000 0.000000000000e+000 0.000000000000e+000 0.000000000000e+000 0.000000000000e+000 0.000000000000e+000 0.000000000000e+000 0.000000000000e+000 0.000000000000e+000 0.000000000000e+000 0.000000000000e+000 0.000000000000e+000 0.000000000000e+000 0.000000000000e+000 0.000000000000e+000 0.000000000000e+000 0.000000000000e+000 0.000000000000e+000 0.000000000000e+000 0.000000000000e+000 0.000000000000e+000 0.000000000000e+000 0.000000000000e+000 0.000000000000e+000 0.000000000000e+000 0.000000000000e+000 0.000000000000e+000 0.000000000000e+000 0.000000000000e+000 0.000000000000e+000 0.000000000000e+000 0.000000000000e+000 0.000000000000e+000 0.000000000000e+000 0.000000000000e+000 0.000000000000e+000 0.000000000000e+000 0.000000000000e+000 0.000000000000e+000 0.000000000000e+000 0.000000000000e+000 0.000000000000e+000 0.000000000000e+000 0.000000000000e+000 0.000000000000e+000 0.000000000000e+000 0.000000000000e+000 0.000000000000e+000 0.000000000000e+000 0.000000000000e+000 0.000000000000e+000 0.000000000000e+000 0.000000000000e+000 0.000000000000e+000 0.000000000000e+000 0.000000000000e+000 0.000000000000e+000 0.000000000000e+000 0.000000000000e+000 0.000000000000e+000 0.000000000000e+000 0.000000000000e+000 0.000000000000e+000 0.000000000000e+000 0.000000000000e+000 0.000000000000e+000 0.000000000000e+000 0.000000000000e+000 0.000000000000e+000 0.000000000000e+000 0.000000000000e+000 0.000000000000e+000 0.000000000000e+000 0.000000000000e+000 0.000000000000e+000 0.000000000000e+000 0.000000000000e+000 0.000000000000e+000 0.000000000000e+000 0.000000000000e+000 0.000000000000e+000 0.000000000000e+000 0.000000000000e+000 0.000000000000e+000 0.000000000000e+000 0.000000000000e+000 0.000000000000e+000 0.000000000000e+000 0.000000000000e+000 0.000000000000e+000 0.000000000000e+000 0.000000000000e+000 0.000000000000e+000 0.000000000000e+000 0.000000000000e+000 0.000000000000e+000 0.000000000000e+000 0.000000000000e+000 0.000000000000e+000 0.000000000000e+000 0.000000000000e+000 0.000000000000e+000 0.000000000000e+000 0.000000000000e+000 0.000000000000e+000 0.000000000000e+000 0.000000000000e+000 0.000000000000e+000 0.000000000000e+000 0.000000000000e+000 0.000000000000e+000 0.000000000000e+000 0.000000000000e+000 0.000000000000e+000 0.000000000000e+000 0.000000000000e+000 0.000000000000e+000 0.000000000000e+000 0.000000000000e+000 0.000000000000e+000 0.000000000000e+000 0.000000000000e+000 0.000000000000e+000 0.000000000000e+000 0.000000000000e+000 0.000000000000e+000 0.000000000000e+000 0.000000000000e+000 0.000000000000e+000 0.000000000000e+000 0.000000000000e+000 0.000000000000e+000 0.000000000000e+000 0.000000000000e+000 0.000000000000e+000 0.000000000000e+000 0.000000000000e+000 0.000000000000e+000 0.000000000000e+000 0.000000000000e+000 0.000000000000e+000 0.000000000000e+000 0.000000000000e+000 0.000000000000e+000 0.000000000000e+000 0.000000000000e+000 0.000000000000e+000 0.000000000000e+000 0.000000000000e+000 0.000000000000e+000 0.000000000000e+000 0.000000000000e+000 0.000000000000e+000 0.000000000000e+000 0.000000000000e+000 0.000000000000e+000 0.000000000000e+000 0.000000000000e+000 0.000000000000e+000 0.000000000000e+000 0.000000000000e+000 0.000000000000e+000 0.000000000000e+000 0.000000000000e+000 0.000000000000e+000 0.000000000000e+000 0.000000000000e+000 0.000000000000e+000 0.000000000000e+000 0.000000000000e+000 0.000000000000e+000 0.000000000000e+000 0.000000000000e+000 0.000000000000e+000 0.000000000000e+000 0.000000000000e+000 0.000000000000e+000 0.000000000000e+000 0.000000000000e+000 0.000000000000e+000 0.000000000000e+000 0.000000000000e+000 0.000000000000e+000 0.000000000000e+000 0.000000000000e+000 0.000000000000e+000 0.000000000000e+000 0.000000000000e+000 0.000000000000e+000 0.000000000000e+000 0.000000000000e+000 0.000000000000e+000 0.000000000000e+000 0.000000000000e+000 0.000000000000e+000 0.000000000000e+000 0.000000000000e+000 0.000000000000e+000 0.000000000000e+000 0.000000000000e+000 0.000000000000e+000 0.000000000000e+000 0.000000000000e+000 0.000000000000e+000 0.000000000000e+000 0.000000000000e+000 0.000000000000e+000 0.000000000000e+000 0.000000000000e+000 0.000000000000e+000 0.000000000000e+000 0.000000000000e+000 0.000000000000e+000 0.000000000000e+000 0.000000000000e+000 0.000000000000e+000 0.000000000000e+000 0.000000000000e+000 0.000000000000e+000 0.000000000000e+000 0.000000000000e+000 0.000000000000e+000 0.000000000000e+000 0.000000000000e+000 0.000000000000e+000 0.000000000000e+000 0.000000000000e+000 0.000000000000e+000 0.000000000000e+000 0.000000000000e+000 0.000000000000e+000 0.000000000000e+000 0.000000000000e+000 0.000000000000e+000 0.000000000000e+000 0.000000000000e+000 0.000000000000e+000 0.000000000000e+000 0.000000000000e+000 0.000000000000e+000 0.000000000000e+000 0.000000000000e+000 0.000000000000e+000 0.000000000000e+000 0.000000000000e+000 0.000000000000e+000 0.000000000000e+000 0.000000000000e+000 0.000000000000e+000 0.000000000000e+000 0.000000000000e+000 0.000000000000e+000 0.000000000000e+000 0.000000000000e+000 0.000000000000e+000 0.000000000000e+000 0.000000000000e+000 0.000000000000e+000 0.000000000000e+000 0.000000000000e+000 0.000000000000e+000 0.000000000000e+000 0.000000000000e+000 0.000000000000e+000 0.000000000000e+000 0.000000000000e+000 0.000000000000e+000 0.000000000000e+000 0.000000000000e+000 0.000000000000e+000 0.000000000000e+000 0.000000000000e+000 0.000000000000e+000 0.000000000000e+000 0.000000000000e+000 0.000000000000e+000 0.000000000000e+000 0.000000000000e+000 0.000000000000e+000 0.000000000000e+000 0.000000000000e+000 0.000000000000e+000 0.000000000000e+000 0.000000000000e+000 0.000000000000e+000 0.000000000000e+000 0.000000000000e+000 0.000000000000e+000 0.000000000000e+000 0.000000000000e+000 0.000000000000e+000 0.000000000000e+000 0.000000000000e+000 0.000000000000e+000 0.000000000000e+000 0.000000000000e+000 0.000000000000e+000 0.000000000000e+000 0.000000000000e+000 0.000000000000e+000 0.000000000000e+000 0.000000000000e+000 0.000000000000e+000 0.000000000000e+000 0.000000000000e+000 0.000000000000e+000 0.000000000000e+000 0.000000000000e+000 0.000000000000e+000 0.000000000000e+000 0.000000000000e+000 0.000000000000e+000 0.000000000000e+000 0.000000000000e+000 0.000000000000e+000 0.000000000000e+000 0.000000000000e+000 0.000000000000e+000 0.000000000000e+000 0.000000000000e+000 0.000000000000e+000 0.000000000000e+000 0.000000000000e+000 0.000000000000e+000 0.000000000000e+000 0.000000000000e+000 0.000000000000e+000 0.000000000000e+000 0.000000000000e+000 0.000000000000e+000 0.000000000000e+000 0.000000000000e+000 0.000000000000e+000 0.000000000000e+000 0.000000000000e+000 0.000000000000e+000 0.000000000000e+000 0.000000000000e+000 0.000000000000e+000 0.000000000000e+000 0.000000000000e+000 0.000000000000e+000 0.000000000000e+000 0.000000000000e+000 0.000000000000e+000 0.000000000000e+000 0.000000000000e+000 0.000000000000e+000 0.000000000000e+000 0.000000000000e+000 0.000000000000e+000 0.000000000000e+000 0.000000000000e+000 0.000000000000e+000 0.000000000000e+000 0.000000000000e+000 0.000000000000e+000 0.000000000000e+000 0.000000000000e+000 0.000000000000e+000 0.000000000000e+000 0.000000000000e+000 0.000000000000e+000 0.000000000000e+000 0.000000000000e+000 0.000000000000e+000 0.000000000000e+000 0.000000000000e+000 0.000000000000e+000 0.000000000000e+000 0.000000000000e+000 0.000000000000e+000 0.000000000000e+000 0.000000000000e+000 0.000000000000e+000 0.000000000000e+000 0.000000000000e+000 0.000000000000e+000 0.000000000000e+000 0.000000000000e+000 0.000000000000e+000 0.000000000000e+000 0.000000000000e+000 0.000000000000e+000 0.000000000000e+000 0.000000000000e+000 0.000000000000e+000 0.000000000000e+000 0.000000000000e+000 0.000000000000e+000 0.000000000000e+000 0.000000000000e+000 0.000000000000e+000 0.000000000000e+000 0.000000000000e+000 0.000000000000e+000 0.000000000000e+000 0.000000000000e+000 0.000000000000e+000 0.000000000000e+000 0.000000000000e+000 0.000000000000e+000 0.000000000000e+000 0.000000000000e+000 0.000000000000e+000 0.000000000000e+000 0.000000000000e+000 0.000000000000e+000 0.000000000000e+000 0.000000000000e+000 0.000000000000e+000 0.000000000000e+000 0.000000000000e+000 0.000000000000e+000 0.000000000000e+000 0.000000000000e+000 0.000000000000e+000 0.000000000000e+000 0.000000000000e+000 0.000000000000e+000 0.000000000000e+000 0.000000000000e+000 0.000000000000e+000 0.000000000000e+000 0.000000000000e+000 0.000000000000e+000 0.000000000000e+000 0.000000000000e+000 0.000000000000e+000 0.000000000000e+000 0.000000000000e+000 0.000000000000e+000 0.000000000000e+000 0.000000000000e+000 0.000000000000e+000 0.000000000000e+000 0.000000000000e+000 0.000000000000e+000 0.000000000000e+000 0.000000000000e+000 0.000000000000e+000 0.000000000000e+000 0.000000000000e+000 0.000000000000e+000 0.000000000000e+000 0.000000000000e+000 0.000000000000e+000 0.000000000000e+000 0.000000000000e+000 0.000000000000e+000 0.000000000000e+000 0.000000000000e+000 0.000000000000e+000 0.000000000000e+000 0.000000000000e+000 0.000000000000e+000 0.000000000000e+000 0.000000000000e+000 0.000000000000e+000 0.000000000000e+000 0.000000000000e+000 0.000000000000e+000 0.000000000000e+000 0.000000000000e+000 0.000000000000e+000 0.000000000000e+000 0.000000000000e+000 0.000000000000e+000 0.000000000000e+000 0.000000000000e+000 0.000000000000e+000 0.000000000000e+000 0.000000000000e+000 0.000000000000e+000 0.000000000000e+000 0.000000000000e+000 0.000000000000e+000 0.000000000000e+000 0.000000000000e+000 0.000000000000e+000 0.000000000000e+000 0.000000000000e+000 0.000000000000e+000 0.000000000000e+000 0.000000000000e+000 0.000000000000e+000 0.000000000000e+000 0.000000000000e+000 0.000000000000e+000 0.000000000000e+000 0.000000000000e+000 0.000000000000e+000 0.000000000000e+000 0.000000000000e+000 0.000000000000e+000 0.000000000000e+000 0.000000000000e+000 0.000000000000e+000 0.000000000000e+000 0.000000000000e+000 0.000000000000e+000 0.000000000000e+000 0.000000000000e+000 0.000000000000e+000 0.000000000000e+000 0.000000000000e+000 0.000000000000e+000 0.000000000000e+000 0.000000000000e+000 0.000000000000e+000 0.000000000000e+000 0.000000000000e+000 0.000000000000e+000 0.000000000000e+000 0.000000000000e+000 0.000000000000e+000 0.000000000000e+000 0.000000000000e+000 0.000000000000e+000 0.000000000000e+000 0.000000000000e+000 0.000000000000e+000 0.000000000000e+000 0.000000000000e+000 0.000000000000e+000 0.000000000000e+000 0.000000000000e+000 0.000000000000e+000 0.000000000000e+000 0.000000000000e+000 0.000000000000e+000 0.000000000000e+000 0.000000000000e+000 0.000000000000e+000 0.000000000000e+000 0.000000000000e+000 0.000000000000e+000 0.000000000000e+000 0.000000000000e+000 0.000000000000e+000 0.000000000000e+000 0.000000000000e+000 0.000000000000e+000 0.000000000000e+000 0.000000000000e+000 0.000000000000e+000 0.000000000000e+000 0.000000000000e+000 0.000000000000e+000 0.000000000000e+000 0.000000000000e+000 0.000000000000e+000 0.000000000000e+000 0.000000000000e+000 0.000000000000e+000 0.000000000000e+000 0.000000000000e+000 0.000000000000e+000 0.000000000000e+000 0.000000000000e+000 0.000000000000e+000 0.000000000000e+000 0.000000000000e+000 0.000000000000e+000 0.000000000000e+000 0.000000000000e+000 0.000000000000e+000 0.000000000000e+000 0.000000000000e+000 0.000000000000e+000 0.000000000000e+000 0.000000000000e+000 0.000000000000e+000 0.000000000000e+000 0.000000000000e+000 0.000000000000e+000 0.000000000000e+000 0.000000000000e+000 0.000000000000e+000 0.000000000000e+000 0.000000000000e+000 0.000000000000e+000 0.000000000000e+000 0.000000000000e+000 0.000000000000e+000 0.000000000000e+000 0.000000000000e+000 0.000000000000e+000 0.000000000000e+000 0.000000000000e+000 0.000000000000e+000 0.000000000000e+000 0.000000000000e+000 0.000000000000e+000 0.000000000000e+000 0.000000000000e+000 0.000000000000e+000 0.000000000000e+000 0.000000000000e+000 0.000000000000e+000 0.000000000000e+000 0.000000000000e+000 0.000000000000e+000 0.000000000000e+000 0.000000000000e+000 0.000000000000e+000 0.000000000000e+000 0.000000000000e+000 0.000000000000e+000 0.000000000000e+000 0.000000000000e+000 0.000000000000e+000 0.000000000000e+000 0.000000000000e+000 0.000000000000e+000 0.000000000000e+000 0.000000000000e+000 0.000000000000e+000 0.000000000000e+000 0.000000000000e+000 0.000000000000e+000 0.000000000000e+000 0.000000000000e+000 0.000000000000e+000 0.000000000000e+000 0.000000000000e+000 0.000000000000e+000 0.000000000000e+000 0.000000000000e+000 0.000000000000e+000 0.000000000000e+000 0.000000000000e+000 0.000000000000e+000 0.000000000000e+000 0.000000000000e+000 0.000000000000e+000 0.000000000000e+000 0.000000000000e+000 0.000000000000e+000 0.000000000000e+000 0.000000000000e+000 0.000000000000e+000 0.000000000000e+000 0.000000000000e+000 0.000000000000e+000 0.000000000000e+000 0.000000000000e+000 0.000000000000e+000 0.000000000000e+000 0.000000000000e+000 0.000000000000e+000 0.000000000000e+000 0.000000000000e+000 0.000000000000e+000 0.000000000000e+000 0.000000000000e+000 0.000000000000e+000 0.000000000000e+000 0.000000000000e+000 0.000000000000e+000 0.000000000000e+000 0.000000000000e+000 0.000000000000e+000 0.000000000000e+000 0.000000000000e+000 0.000000000000e+000 0.000000000000e+000 0.000000000000e+000 0.000000000000e+000 0.000000000000e+000 0.000000000000e+000 0.000000000000e+000 0.000000000000e+000 0.000000000000e+000 0.000000000000e+000 0.000000000000e+000 0.000000000000e+000 0.000000000000e+000 0.000000000000e+000 0.000000000000e+000 0.000000000000e+000 0.000000000000e+000 0.000000000000e+000 0.000000000000e+000 0.000000000000e+000 0.000000000000e+000 0.000000000000e+000 0.000000000000e+000 0.000000000000e+000 0.000000000000e+000 0.000000000000e+000 0.000000000000e+000 0.000000000000e+000 0.000000000000e+000 0.000000000000e+000 0.000000000000e+000 0.000000000000e+000 0.000000000000e+000 0.000000000000e+000 0.000000000000e+000 0.000000000000e+000 0.0