<?xml version="1.0"?>
<VTKFile type="UnstructuredGrid" version="0.1" byte_order="LittleEndian">
  <UnstructuredGrid>
    <Piece NumberOfPoints="325" NumberOfCells="288">
      <Points>
        <DataArray type="Float64" NumberOfComponents="3" format="ascii">
          0.000000000000e+000 0.000000000000e+000 0.000000000000e+000
          2.000000000000e+001 0.000000000000e+000 0.000000000000e+000
          2.000000000000e+001 1.000000000000e+001 0.000000000000e+000
          0.000000000000e+000 1.000000000000e+001 0.000000000000e+000
          8.333333333333e-001 0.000000000000e+000 0.000000000000e+000
          1.666666666667e+000 0.000000000000e+000 0.000000000000e+000
          2.500000000000e+000 0.000000000000e+000 0.000000000000e+000
          3.333333333333e+000 0.000000000000e+000 0.000000000000e+000
          4.166666666667e+000 0.000000000000e+000 0.000000000000e+000
          5.000000000000e+000 0.000000000000e+000 0.000000000000e+000
          5.833333333333e+000 0.000000000000e+000 0.000000000000e+000
          6.666666666667e+000 0.000000000000e+000 0.000000000000e+000
          7.500000000000e+000 0.000000000000e+000 0.000000000000e+000
          8.333333333333e+000 0.000000000000e+000 0.000000000000e+000
          9.166666666667e+000 0.000000000000e+000 0.000000000000e+000
          1.000000000000e+001 0.000000000000e+000 0.000000000000e+000
          1.083333333333e+001 0.000000000000e+000 0.000000000000e+000
          1.166666666667e+001 0.000000000000e+000 0.000000000000e+000
          1.250000000000e+001 0.000000000000e+000 0.000000000000e+000
          1.333333333333e+001 0.000000000000e+000 0.000000000000e+000
          1.416666666667e+001 0.000000000000e+000 0.000000000000e+000
          1.500000000000e+001 0.000000000000e+000 0.000000000000e+000
          1.583333333333e+001 0.000000000000e+000 0.000000000000e+000
          1.666666666667e+001 0.000000000000e+000 0.000000000000e+000
          1.750000000000e+001 0.000000000000e+000 0.000000000000e+000
          1.833333333333e+001 0.000000000000e+000 0.000000000000e+000
          1.916666666667e+001 0.000000000000e+000 0.000000000000e+000
          0.000000000000e+000 8.333333333333e-001 0.000000000000e+000
          8.333333333333e-001 8.333333333333e-001 0.000000000000e+000
          1.666666666667e+000 8.333333333333e-001 0.000000000000e+000
          2.500000000000e+000 8.333333333333e-001 0.000000000000e+000
          3.333333333333e+000 8.333333333333e-001 0.000000000000e+000
          4.166666666667e+000 8.333333333333e-001 0.000000000000e+000
          5.000000000000e+000 8.333333333333e-001 0.000000000000e+000
          5.833333333333e+000 8.333333333333e-001 0.000000000000e+000
          6.666666666667e+000 8.333333333333e-001 0.000000000000e+000
          7.500000000000e+000 8.333333333333e-001 0.000000000000e+000
          8.333333333333e+000 8.333333333333e-001 0.000000000000e+000
          9.166666666667e+000 8.333333333333e-001 0.000000000000e+000
          1.000000000000e+001 8.333333333333e-001 0.000000000000e+000
          1.083333333333e+001 8.333333333333e-001 0.000000000000e+000
          1.166666666667e+001 8.333333333333e-001 0.000000000000e+000
          1.250000000000e+001 8.333333333333e-001 0.000000000000e+000
          1.333333333333e+001 8.333333333333e-001 0.000000000000e+000
          1.416666666667e+001 8.333333333333e-001 0.000000000000e+000
          1.500000000000e+001 8.333333333333e-001 0.000000000000e+000
          1.583333333333e+001 8.333333333333e-001 0.000000000000e+000
          1.666666666667e+001 8.333333333333e-001 0.000000000000e+000
          1.750000000000e+001 8.333333333333e-001 0.000000000000e+000
          1.833333333333e+001 8.333333333333e-001 0.000000000000e+000
          1.916666666667e+001 8.333333333333e-001 0.000000000000e+000
          2.000000000000e+001 8.333333333333e-001 0.000000000000e+000
          0.000000000000e+000 1.666666666667e+000 0.000000000000e+000
          8.333333333333e-001 1.666666666667e+000 0.000000000000e+000
          1.666666666667e+000 1.666666666667e+000 0.000000000000e+000
          2.500000000000e+000 1.666666666667e+000 0.000000000000e+000
          3.333333333333e+000 1.666666666667e+000 0.000000000000e+000
          4.166666666667e+000 1.666666666667e+000 0.000000000000e+000
          5.000000000000e+000 1.666666666667e+000 0.000000000000e+000
          5.833333333333e+000 1.666666666667e+000 0.000000000000e+000
          6.666666666667e+000 1.666666666667e+000 0.000000000000e+000
          7.500000000000e+000 1.666666666667e+000 0.000000000000e+000
          8.333333333333e+000 1.666666666667e+000 0.000000000000e+000
          9.166666666667e+000 1.666666666667e+000 0.000000000000e+000
          1.000000000000e+001 1.666666666667e+000 0.000000000000e+000
          1.083333333333e+001 1.666666666667e+000 0.000000000000e+000
          1.166666666667e+001 1.666666666667e+000 0.000000000000e+000
          1.250000000000e+001 1.666666666667e+000 0.000000000000e+000
          1.333333333333e+001 1.666666666667e+000 0.000000000000e+000
          1.416666666667e+001 1.666666666667e+000 0.000000000000e+000
          1.500000000000e+001 1.666666666667e+000 0.000000000000e+000
          1.583333333333e+001 1.666666666667e+000 0.000000000000e+000
          1.666666666667e+001 1.666666666667e+000 0.000000000000e+000
          1.750000000000e+001 1.666666666667e+000 0.000000000000e+000
          1.833333333333e+001 1.666666666667e+000 0.000000000000e+000
          1.916666666667e+001 1.666666666667e+000 0.000000000000e+000
          2.000000000000e+001 1.666666666667e+000 0.000000000000e+000
          0.000000000000e+000 2.500000000000e+000 0.000000000000e+000
          8.333333333333e-001 2.500000000000e+000 0.000000000000e+000
          1.666666666667e+000 2.500000000000e+000 0.000000000000e+000
          2.500000000000e+000 2.500000000000e+000 0.000000000000e+000
          3.333333333333e+000 2.500000000000e+000 0.000000000000e+000
          4.166666666667e+000 2.500000000000e+000 0.000000000000e+000
          5.000000000000e+000 2.500000000000e+000 0.000000000000e+000
          5.833333333333e+000 2.500000000000e+000 0.000000000000e+000
          6.666666666667e+000 2.500000000000e+000 0.000000000000e+000
          7.500000000000e+000 2.500000000000e+000 0.000000000000e+000
          8.333333333333e+000 2.500000000000e+000 0.000000000000e+000
          9.166666666667e+000 2.500000000000e+000 0.000000000000e+000
          1.000000000000e+001 2.500000000000e+000 0.000000000000e+000
          1.083333333333e+001 2.500000000000e+000 0.000000000000e+000
          1.166666666667e+001 2.500000000000e+000 0.000000000000e+000
          1.250000000000e+001 2.500000000000e+000 0.000000000000e+000
          1.333333333333e+001 2.500000000000e+000 0.000000000000e+000
          1.416666666667e+001 2.500000000000e+000 0.000000000000e+000
          1.500000000000e+001 2.500000000000e+000 0.000000000000e+000
          1.583333333333e+001 2.500000000000e+000 0.000000000000e+000
          1.666666666667e+001 2.500000000000e+000 0.000000000000e+000
          1.750000000000e+001 2.500000000000e+000 0.000000000000e+000
          1.833333333333e+001 2.500000000000e+000 0.000000000000e+000
          1.916666666667e+001 2.500000000000e+000 0.000000000000e+000
          2.000000000000e+001 2.500000000000e+000 0.000000000000e+000
          0.000000000000e+000 3.333333333333e+000 0.000000000000e+000
          8.333333333333e-001 3.333333333333e+000 0.000000000000e+000
          1.666666666667e+000 3.333333333333e+000 0.000000000000e+000
          2.500000000000e+000 3.333333333333e+000 0.000000000000e+000
          3.333333333333e+000 3.333333333333e+000 0.000000000000e+000
          4.166666666667e+000 3.333333333333e+000 0.000000000000e+000
          5.000000000000e+000 3.333333333333e+000 0.000000000000e+000
          5.833333333333e+000 3.333333333333e+000 0.000000000000e+000
          6.666666666667e+000 3.333333333333e+000 0.000000000000e+000
          7.500000000000e+000 3.333333333333e+000 0.000000000000e+000
          8.333333333333e+000 3.333333333333e+000 0.000000000000e+000
          9.166666666667e+000 3.333333333333e+000 0.000000000000e+000
          1.000000000000e+001 3.333333333333e+000 0.000000000000e+000
          1.083333333333e+001 3.333333333333e+000 0.000000000000e+000
          1.166666666667e+001 3.333333333333e+000 0.000000000000e+000
          1.250000000000e+001 3.333333333333e+000 0.000000000000e+000
          1.333333333333e+001 3.333333333333e+000 0.000000000000e+000
          1.416666666667e+001 3.333333333333e+000 0.000000000000e+000
          1.500000000000e+001 3.333333333333e+000 0.000000000000e+000
          1.583333333333e+001 3.333333333333e+000 0.000000000000e+000
          1.666666666667e+001 3.333333333333e+000 0.000000000000e+000
          1.750000000000e+001 3.333333333333e+000 0.000000000000e+000
          1.833333333333e+001 3.333333333333e+000 0.000000000000e+000
          1.916666666667e+001 3.333333333333e+000 0.000000000000e+000
          2.000000000000e+001 3.333333333333e+000 0.000000000000e+000
          0.000000000000e+000 4.166666666667e+000 0.000000000000e+000
          8.333333333333e-001 4.166666666667e+000 0.000000000000e+000
          1.666666666667e+000 4.166666666667e+000 0.000000000000e+000
          2.500000000000e+000 4.166666666667e+000 0.000000000000e+000
          3.333333333333e+000 4.166666666667e+000 0.000000000000e+000
          4.166666666667e+000 4.166666666667e+000 0.000000000000e+000
          5.000000000000e+000 4.166666666667e+000 0.000000000000e+000
          5.833333333333e+000 4.166666666667e+000 0.000000000000e+000
          6.666666666667e+000 4.166666666667e+000 0.000000000000e+000
          7.500000000000e+000 4.166666666667e+000 0.000000000000e+000
          8.333333333333e+000 4.166666666667e+000 0.000000000000e+000
          9.166666666667e+000 4.166666666667e+000 0.000000000000e+000
[...]
      <PointData Scalars="HEAD">
        <DataArray type="Float64" Name="HEAD" format="ascii">
          0.000000000000e+000 0.000000000000e+000 0.000000000000e+000 0.000000000000e+000 0.000000000000e+000 0.000000000000e+000 0.000000000000e+000 0.000000000000e+000 0.000000000000e+000 0.000000000000e+000 0.000000000000e+000 0.000000000000e+000 0.000000000000e+000 0.000000000000e+000 0.000000000000e+000 0.000000000000e+000 0.000000000000e+000 0.000000000000e+000 0.000000000000e+000 0.000000000000e+000 0.000000000000e+000 0.000000000000e+000 0.000000000000e+000 0.000000000000e+000 0.000000000000e+000 0.000000000000e+000 0.000000000000e+000 0.000000000000e+000 0.000000000000e+000 0.000000000000e+000 0.000000000000e+000 0.000000000000e+000 0.000000000000e+000 0.000000000000e+000 0.000000000000e+000 0.000000000000e+000 0.000000000000e+000 0.000000000000e+000 0.000000000000e+000 0.000000000000e+000 0.000000000000e+000 0.000000000000e+000 0.000000000000e+000 0.000000000000e+000 0.000000000000e+000 0.000000000000e+000 0.000000000000e+000 0.000000000000e+000 0.000000000000e+000 0.000000000000e+000 0.000000000000e+000 0.000000000000e+000 0.000000000000e+000 0.000000000000e+000 0.000000000000e+000 0.000000000000e+000 0.000000000000e+000 0.000000000000e+000 0.000000000000e+000 0.000000000000e+000 0.000000000000e+000 0.000000000000e+000 0.000000000000e+000 0.000000000000e+000 0.000000000000e+000 0.000000000000e+000 0.000000000000e+000 0.000000000000e+000 0.000000000000e+000 0.000000000000e+000 0.000000000000e+000 0.000000000000e+000 0.000000000000e+000 0.000000000000e+000 0.000000000000e+000 0.000000000000e+000 0.000000000000e+000 0.000000000000e+000 0.000000000000e+000 0.000000000000e+000 0.000000000000e+000 0.000000000000e+000 0.000000000000e+000 0.000000000000e+000 0.000000000000e+000 0.000000000000e+000 0.000000000000e+000 0.000000000000e+000 0.000000000000e+000 0.000000000000e+000 0.000000000000e+000 0.000000000000e+000 0.000000000000e+000 0.000000000000e+000 0.000000000000e+000 0.000000000000e+000 0.000000000000e+000 0.000000000000e+000 0.000000000000e+000 0.000000000000e+000 0.000000000000e+000 0.000000000000e+000 0.000000000000e+000 0.000000000000e+000 0.000000000000e+000 0.000000000000e+000 0.000000000000e+000 0.000000000000e+000 0.000000000000e+000 0.000000000000e+000 0.000000000000e+000 0.000000000000e+000 0.000000000000e+000 0.000000000000e+000 0.000000000000e+000 0.000000000000e+000 0.000000000000e+000 0.000000000000e+000 0.000000000000e+000 0.000000000000e+000 0.000000000000e+000 0.000000000000e+000 0.000000000000e+000 0.000000000000e+000 0.000000000000e+000 0.000000000000e+000 0.000000000000e+000 0.000000000000e+000 0.000000000000e+000 0.000000000000e+000 0.000000000000e+000 0.000000000000e+000 0.000000000000e+000 0.000000000000e+000 0.000000000000e+000 0.000000000000e+000 0.000000000000e+000 0.000000000000e+000 0.000000000000e+000 0.000000000000e+000 0.000000000000e+000 0.000000000000e+000 0.000000000000e+000 0.000000000000e+000 0.000000000000e+000 0.000000000000e+000 0.000000000000e+000 0.000000000000e+000 0.000000000000e+000 0.000000000000e+000 0.000000000000e+000 0.000000000000e+000 0.000000000000e+000 0.000000000000e+000 0.000000000000e+000 0.000000000000e+000 0.000000000000e+000 0.000000000000e+000 0.000000000000e+000 0.000000000000e+000 0.000000000000e+000 0.000000000000e+000 0.000000000000e+000 0.000000000000e+000 0.000000000000e+000 0.000000000000e+000 0.000000000000e+000 0.000000000000e+000 0.000000000000e+000 0.000000000000e+000 0.000000000000e+000 0.000000000000e+000 0.000000000000e+000 0.000000000000e+000 0.000000000000e+000 0.000000000000e+000 0.000000000000e+000 0.000000000000e+000 0.000000000000e+000 0.000000000000e+000 0.000000000000e+000 0.000000000000e+000 0.000000000000e+000 0.000000000000e+000 0.000000000000e+000 0.000000000000e+000 0.000000000000e+000 0.000000000000e+000 0.000000000000e+000 0.000000000000e+000 0.000000000000e+000 0.000000000000e+000 0.000000000000e+000 0.000000000000e+000 0.000000000000e+000 0.000000000000e+000 0.000000000000e+000 0.000000000000e+000 0.000000000000e+000 0.000000000000e+000 0.000000000000e+000 0.000000000000e+000 0.000000000000e+000 0.000000000000e+000 0.000000000000e+000 0.000000000000e+000 0.000000000000e+000 0.000000000000e+000 0.000000000000e+000 0.000000000000e+000 0.000000000000e+000 0.000000000000e+000 0.000000000000e+000 0.000000000000e+000 0.000000000000e+000 0.000000000000e+000 0.000000000000e+000 0.000000000000e+000 0.000000000000e+000 0.000000000000e+000 0.000000000000e+000 0.000000000000e+000 0.000000000000e+000 0.000000000000e+000 0.000000000000e+000 0.000000000000e+000 0.000000000000e+000 0.000000000000e+000 0.000000000000e+000 0.000000000000e+000 0.000000000000e+000 0.000000000000e+000 0.000000000000e+000 0.000000000000e+000 0.000000000000e+000 0.000000000000e+000 0.000000000000e+000 0.000000000000e+000 0.000000000000e+000 0.000000000000e+000 0.000000000000e+000 0.000000000000e+000 0.000000000000e+000 0.000000000000e+000 0.000000000000e+000 0.000000000000e+000 0.000000000000e+000 0.000000000000e+000 0.000000000000e+000 0.000000000000e+000 0.000000000000e+000 0.000000000000e+000 0.000000000000e+000 0.000000000000e+000 0.000000000000e+000 0.000000000000e+000 0.000000000000e+000 0.000000000000e+000 0.000000000000e+000 0.000000000000e+000 0.000000000000e+000 0.000000000000e+000 0.000000000000e+000 0.000000000000e+000 0.000000000000e+000 0.000000000000e+000 0.000000000000e+000 0.000000000000e+000 0.000000000000e+000 0.000000000000e+000 0.000000000000e+000 0.000000000000e+000 0.000000000000e+000 0.000000000000e+000 0.000000000000e+000 0.000000000000e+000 0.000000000000e+000 0.000000000000e+000 0.000000000000e+000 0.000000000000e+000 0.000000000000e+000 0.000000000000e+000 0.000000000000e+000 0.000000000000e+000 0.000000000000e+000 0.000000000000e+000 0.000000000000e+000 0.000000000000e+000 0.000000000000e+000 0.000000000000e+000 0.000000000000e+000 0.000000000000e+000 0.000000000000e+000 0.000000000000e+000 0.000000000000e+000 0.000000000000e+000 0.000000000000e+000 0.000000000000e+000 0.000000000000e+000 0.000000000000e+000 0.000000000000e+000 0.000000000000e+000 0.000000000000e+000 0.000000000000e+000 0.000000000000e+000 0.000000000000e+000 0.000000000000e+000 0.000000000000e+000 0.000000000000e+000 0.000000000000e+000 0.000000000000e+000 0.000000000000e+000 0.000000000000e+000 0.000000000000e+000 0.000000000000e+000 0.000000000000e+000 0.000000000000e+000 0.000000000000e+000 0.000000000000e+000 0.000000000000e+000 0.000000000000e+000 0.000000000000e+000 0.000000000000e+000 0.000000000000e+000 0.000000000000e+000 
        </DataArray>
        <DataArray type="Float64" Name="Tracer" format="ascii">
          0.000000000000e+000 0.000000000000e+000 0.000000000000e+000 0.000000000000e+000 0.000000000000e+000 0.000000000000e+000 0.000000000000e+000 0.000000000000e+000 0.000000000000e+000 0.000000000000e+000 0.000000000000e+000 0.000000000000e+000 0.000000000000e+000 0.000000000000e+000 0.000000000000e+000 0.000000000000e+000 0.000000000000e+000 0.000000000000e+000 0.000000000000e+000 0.000000000000e+000 0.000000000000e+000 0.000000000000e+000 0.000000000000e+000 0.000000000000e+000 0.000000000000e+000 0.000000000000e+000 0.000000000000e+000 0.000000000000e+000 0.000000000000e+000 0.000000000000e+000 0.000000000000e+000 0.000000000000e+000 0.000000000000e+000 0.000000000000e+000 0.000000000000e+000 0.000000000000e+000 0.000000000000e+000 0.000000000000e+000 0.000000000000e+000 0.000000000000e+000 0.000000000000e+000 0.000000000000e+000 0.000000000000e+000 0.000000000000e+000 0.000000000000e+000 0.000000000000e+000 0.000000000000e+000 0.000000000000e+000 0.000000000000e+000 0.000000000000e+000 0.000000000000e+000 0.000000000000e+000 0.000000000000e+000 0.000000000000e+000 0.000000000000e+000 0.000000000000e+000 0.000000000000e+000 0.000000000000e+000 0.000000000000e+000 0.000000000000e+000 0.000000000000e+000 0.000000000000e+000 0.000000000000e+000 0.000000000000e+000 0.000000000000e+000 0.000000000000e+000 0.000000000000e+000 0.000000000000e+000 0.000000000000e+000 0.000000000000e+000 0.000000000000e+000 0.000000000000e+000 0.000000000000e+000 0.000000000000e+000 0.000000000000e+000 0.000000000000e+000 0.000000000000e+000 0.000000000000e+000 0.000000000000e+000 0.000000000000e+000 0.000000000000e+000 0.000000000000e+000 0.000000000000e+000 0.000000000000e+000 0.000000000000e+000 0.000000000000e+000 0.000000000000e+000 0.000000000000e+000 0.000000000000e+000 0.000000000000e+000 0.000000000000e+000 0.000000000000e+000 0.000000000000e+000 0.000000000000e+000 0.000000000000e+000 0.000000000000e+000 0.000000000000e+000 0.000000000000e+000 0.000000000000e+000 0.000000000000e+000 0.000000000000e+000 0.000000000000e+000 0.000000000000e+000 0.000000000000e+000 0.000000000000e+000 0.000000000000e+000 0.000000000000e+000 0.000000000000e+000 0.000000000000e+000 0.000000000000e+000 0.000000000000e+000 0.000000000000e+000 0.000000000000e+000 0.000000000000e+000 0.000000000000e+000 0.000000000000e+000 0.000000000000e+000 0.000000000000e+000 0.000000000000e+000 0.000000000000e+000 0.000000000000e+000 0.000000000000e+000 0.000000000000e+000 0.000000000000e+000 0.000000000000e+000 0.000000000000e+000 0.000000000000e+000 0.000000000000e+000 0.000000000000e+000 0.000000000000e+000 0.000000000000e+000 0.000000000000e+000 0.000000000000e+000 0.000000000000e+000 0.000000000000e+000 0.000000000000e+000 0.000000000000e+000 0.000000000000e+000 0.000000000000e+000 0.000000000000e+000 0.000000000000e+000 0.000000000000e+000 0.000000000000e+000 0.000000000000e+000 0.000000000000e+000 0.000000000000e+000 0.000000000000e+000 0.000000000000e+000 0.000000000000e+000 0.000000000000e+000 0.000000000000e+000 0.000000000000e+000 0.000000000000e+000 0.000000000000e+000 0.000000000000e+000 0.000000000000e+000 0.000000000000e+000 0.000000000000e+000 0.000000000000e+000 0.000000000000e+000 0.000000000000e+000 0.000000000000e+000 0.000000000000e+000 0.000000000000e+000 0.000000000000e+000 0.000000000000e+000 0.000000000000e+000 0.000000000000e+000 0.000000000000e+000 0.000000000000e+000 0.000000000000e+000 0.000000000000e+000 0.000000000000e+000 0.000000000000e+000 0.000000000000e+000 0.000000000000e+000 0.000000000000e+000 0.000000000000e+000 0.000000000000e+000 0.000000000000e+000 0.000000000000e+000 0.000000000000e+000 0.000000000000e+000 0.000000000000e+000 0.000000000000e+000 0.000000000000e+000 0.000000000000e+000 0.000000000000e+000 0.000000000000e+000 0.000000000000e+000 0.000000000000e+000 0.000000000000e+000 0.000000000000e+000 0.000000000000e+000 0.000000000000e+000 0.000000000000e+000 0.000000000000e+000 0.000000000000e+000 0.000000000000e+000 0.000000000000e+000 0.000000000000e+000 0.000000000000e+000 0.000000000000e+000 0.000000000000e+000 0.000000000000e+000 0.000000000000e+000 0.000000000000e+000 0.000000000000e+000 0.000000000000e+000 0.000000000000e+000 0.000000000000e+000 0.000000000000e+000 0.000000000000e+000 0.000000000000e+000 0.000000000000e+000 0.000000000000e+000 0.000000000000e+000 0.000000000000e+000 0.000000000000e+000 0.000000000000e+000 0.000000000000e+000 0.000000000000e+000 0.000000000000e+000 0.000000000000e+000 0.000000000000e+000 0.000000000000e+000 0.000000000000e+000 0.000000000000e+000 0.000000000000e+000 0.000000000000e+000 0.000000000000e+000 0.000000000000e+000 0.000000000000e+000 0.000000000000e+000 0.000000000000e+000 0.000000000000e+000 0.000000000000e+000 0.000000000000e+000 0.000000000000e+000 0.000000000000e+000 0.000000000000e+000 0.000000000000e+000 0.000000000000e+000 0.000000000000e+000 0.000000000000e+000 0.000000000000e+000 0.000000000000e+000 0.000000000000e+000 0.000000000000e+000 0.000000000000e+000 0.000000000000e+000 0.000000000000e+000 0.000000000000e+000 0.000000000000e+000 0.000000000000e+000 0.000000000000e+000 0.000000000000e+000 0.000000000000e+000 0.000000000000e+000 0.000000000000e+000 0.000000000000e+000 0.000000000000e+000 0.000000000000e+000 0.000000000000e+000 0.000000000000e+000 0.000000000000e+000 0.000000000000e+000 0.000000000000e+000 0.000000000000e+000 0.000000000000e+000 0.000000000000e+000 0.000000000000e+000 0.000000000000e+000 0.000000000000e+000 0.000000000000e+000 0.000000000000e+000 0.000000000000e+000 0.000000000000e+000 0.000000000000e+000 0.000000000000e+000 0.000000000000e+000 0.000000000000e+000 0.000000000000e+000 0.000000000000e+000 0.000000000000e+000 0.000000000000e+000 0.000000000000e+000 0.000000000000e+000 0.000000000000e+000 0.000000000000e+000 0.000000000000e+000 0.000000000000e+000 0.000000000000e+000 0.000000000000e+000 0.000000000000e+000 0.000000000000e+000 0.000000000000e+000 0.000000000000e+000 0.000000000000e+000 0.000000000000e+000 0.000000000000e+000 0.000000000000e+000 0.000000000000e+000 0.000000000000e+000 0.000000000000e+000 0.000000000000e+000 0.000000000000e+000 0.000000000000e+000 0.000000000000e+000 0.000000000000e+000 0.000000000000e+000 0.000000000000e+000 0.000000000000e+000 0.000000000000e+000 0.000000000000e+000 0.000000000000e+000 0.000000000000e+000 0.000000000000e+000 0.000000000000e+000 0.000000000000e+000 0.000000000000e+000 0.000000000000e+000 0.000000000000e+000 0.000000000000e+000 0.000000000000e+000 
        </DataArray>
      </PointData>
      <CellData>
        <DataArray type="Float64" Name="VELOCITY" NumberOfComponents="3" format="ascii">
          0 0 0 0 0 0 0 0 0 0 0 0 0 0 0 0 0 0 0 0 0 0 0 0 0 0 0 0 0 0 0 0 0 0 0 0 0 0 0 0 0 0 0 0 0 0 0 0 0 0 0 0 0 0 0 0 0 0 0 0 0 0 0 0 0 0 0 0 0 0 0 0 0 0 0 0 0 0 0 0 0 0 0 0 0 0 0 0 0 0 0 0 0 0 0 0 0 0 0 0 0 0 0 0 0 0 0 0 0 0 0 0 0 0 0 0 0 0 0 0 0 0 0 0 0 0 0 0 0 0 0 0 0 0 0 0 0 0 0 0 0 0 0 0 0 0 0 0 0 0 0 0 0 0 0 0 0 0 0 0 0 0 0 0 0 0 0 0 0 0 0 0 0 0 0 0 0 0 0 0 0 0 0 0 0 0 0 0 0 0 0 0 0 0 0 0 0 0 0 0 0 0 0 0 0 0 0 0 0 0 0 0 0 0 0 0 0 0 0 0 0 0 0 0 0 0 0 0 0 0 0 0 0 0 0 0 0 0 0 0 0 0 0 0 0 0 0 0 0 0 0 0 0 0 0 0 0 0 0 0 0 0 0 0 0 0 0 0 0 0 0 0 0 0 0 0 0 0 0 0 0 0 0 0 0 0 0 0 0 0 0 0 0 0 0 0 0 0 0 0 0 0 0 0 0 0 0 0 0 0 0 0 0 0 0 0 0 0 0 0 0 0 0 0 0 0 0 0 0 0 0 0 0 0 0 0 0 0 0 0 0 0 0 0 0 0 0 0 0 0 0 0 0 0 0 0 0 0 0 0 0 0 0 0 0 0 0 0 0 0 0 0 0 0 0 0 0 0 0 0 0 0 0 0 0 0 0 0 0 0 0 0 0 0 0 0 0 0 0 0 0 0 0 0 0 0 0 0 0 0 0 0 0 0 0 0 0 0 0 0 0 0 0 0 0 0 0 0 0 0 0 0 0 0 0 0 0 0 0 0 0 0 0 0 0 0 0 0 0 0 0 0 0 0 0 0 0 0 0 0 0 0 0 0 0 0 0 0 0 0 0 0 0 0 0 0 0 0 0 0 0 0 0 0 0 0 0 0 0 0 0 0 0 0 0 0 0 0 0 0 0 0 0 0 0 0 0 0 0 0 0 0 0 0 0 0 0 0 0 0 0 0 0 0 0 0 0 0 0 0 0 0 0 0 0 0 0 0 0 0 0 0 0 0 0 0 0 0 0 0 0 0 0 0 0 0 0 0 0 0 0 0 0 0 0 0 0 0 0 0 0 0 0 0 0 0 0 0 0 0 0 0 0 0 0 0 0 0 0 0 0 0 0 0 0 0 0 0 0 0 0 0 0 0 0 0 0 0 0 0 0 0 0 0 0 0 0 0 0 0 0 0 0 0 0 0 0 0 0 0 0 0 0 0 0 0 0 0 0 0 0 0 0 0 0 0 0 0 0 0 0 0 0 0 0 0 0 0 0 0 0 0 0 0 0 0 0 0 0 0 0 0 0 0 0 0 0 0 0 0 0 0 0 0 0 0 0 0 0 0 0 0 0 0 0 0 0 0 0 0 0 0 0 0 0 0 0 0 0 0 0 0 0 0 0 0 0 0 0 0 0 0 0 0 0 0 0 0 0 0 0 0 0 0 0 0 0 0 0 0 0 0 0 0 0 0 0 0 0 0 0 0 0 0 0 0 0 0 0 0 0 0 0 0 0 0 0 0 0 0 0 0 0 0 0 0 0 0 0 0 0 0 0 0 0 0 0 0 0 0 0 0 0 0 0 0 0 0 0 0 0 0 0 0 0 0 0 0 0 0 0 0 0 0 0 0 0 0 0 0 0 0 0 0 0 0 0 0 0 0 0 0 0 0 0 0 0 0 0 0 0 0 0 0 0 0 0 0 0 0 0 0 0 0 0 0 0 0 0 0 0 0 0 0 
        </DataArray>
        <DataArray type="Int32" Name="MatGroup" format="ascii">
          0 0 0 0 0 0 0 0 0 0 0 0 0 0 0 0 0 0 0 0 0 0 0 0 0 0 0 0 0 0 0 0 0 0 0 0 0 0 0 0 0 0 0 0 0 0 0 0 0 0 0 0 0 0 0 0 0 0 0 0 0 0 0 0 0 0 0 0 0 0 0 0 0 0 0 0 0 0 0 0 0 0 0 0 0 0 0 0 0 0 0 0 0 0 0 0 0 0 0 0 0 0 0 0 0 0 0 0 0 0 0 0 0 0 0 0 0 0 0 0 0 0 0 0 0 0 0 0 0 0 0 0 0 0 0 0 0 0 0 0 0 0 0 0 0 0 0 0 0 0 0 0 0 0 0 0 0 0 0 0 0 0 0 0 0 0 0 0 0 0 0 0 0 0 0 0 0 0 0 0 0 0 0 0 0 0 0 0 0 0 0 0 0 0 0 0 0 0 0 0 0 0 0 0 0 0 0 0 0 0 0 0 0 0 0 0 0 0 0 0 0 0 0 0 0 0 0 0 0 0 0 0 0 0 0 0 0 0 0 0 0 0 0 0 0 0 0 0 0 0 0 0 0 0 0 0 0 0 0 0 0 0 0 0 0 0 0 0 0 0 0 0 0 0 0 0 0 0 0 0 0 0 0 0 0 0 0 0 
        </DataArray>
      </CellData>
    </Piece>
  </UnstructuredGrid>
</VTKFile>
