<?xml version="1.0"?>
<!-- Time step: 1 | Time: 1.000000000000e+00 -->
<VTKFile type="UnstructuredGrid" version="0.1" byte_order="LittleEndian">
  <UnstructuredGrid>
    <Piece NumberOfPoints="2398" NumberOfCells="7341">
      <Points>
        <DataArray type="Float64" NumberOfComponents="3" format="ascii">
          4.499500000000e-02 -5.000000000000e-06 2.500000000000e-01
          5.000000000000e-02 0.000000000000e+00 2.500000000000e-01
          4.950000000000e-02 4.850000000000e-03 2.500000000000e-01
          4.800000000000e-03 4.945000000000e-02 2.500000000000e-01
          -1.000000000000e-04 4.990000000000e-02 2.500000000000e-01
          -9.500000000000e-05 4.490500000000e-02 2.500000000000e-01
          1.514685086641e-02 4.099708498181e-02 2.500000000000e-01
          1.910000000000e-02 4.610000000000e-02 2.500000000000e-01
          1.440000000000e-02 4.755000000000e-02 2.500000000000e-01
          4.755000000000e-02 1.440000000000e-02 2.500000000000e-01
          4.610000000000e-02 1.910000000000e-02 2.500000000000e-01
          4.143681877597e-02 1.482659581205e-02 2.500000000000e-01
          3.150000000000e-02 3.840000000000e-02 2.500000000000e-01
          2.770000000000e-02 4.150000000000e-02 2.500000000000e-01
          2.634522025725e-02 3.596026999276e-02 2.500000000000e-01
          8.130513142652e-03 1.613060442674e-02 2.500000000000e-01
          1.340070666587e-02 1.177046236352e-02 2.500000000000e-01
          1.275420703690e-02 1.746809895128e-02 2.500000000000e-01
          1.736007630346e-02 1.611890708889e-02 2.500000000000e-01
          9.935234930222e-03 2.173794503238e-02 2.500000000000e-01
          2.246766917751e-02 4.808153310094e-03 2.500000000000e-01
          1.997000000000e-02 -3.000000000000e-05 2.500000000000e-01
          2.497500000000e-02 -2.500000000000e-05 2.500000000000e-01
          4.762719943456e-03 2.243234006000e-02 2.500000000000e-01
          -7.500000000000e-05 2.492500000000e-02 2.500000000000e-01
          -7.000000000000e-05 1.993000000000e-02 2.500000000000e-01
          1.980123872466e-02 3.204731656202e-02 2.500000000000e-01
          1.442567433997e-02 3.181597211157e-02 2.500000000000e-01
          1.723808987637e-02 2.671610948417e-02 2.500000000000e-01
          4.900000000000e-02 9.700000000000e-03 2.500000000000e-01
          4.418262600751e-02 5.266425300966e-03 2.500000000000e-01
          3.999000000000e-02 -1.000000000000e-05 2.500000000000e-01
          3.697450025553e-02 2.488655764024e-02 2.500000000000e-01
          3.135594789098e-02 2.436991294192e-02 2.500000000000e-01
          3.651888215994e-02 1.882429716769e-02 2.500000000000e-01
          5.164339480302e-03 4.414912722639e-02 2.500000000000e-01
          9.700000000000e-03 4.900000000000e-02 2.500000000000e-01
          -9.000000000000e-05 3.991000000000e-02 2.500000000000e-01
          3.034670356689e-02 1.805945416704e-02 2.500000000000e-01
          3.293257609169e-02 1.437047657282e-02 2.500000000000e-01
          1.165190529784e-02 4.859108765654e-03 2.500000000000e-01
          9.960000000000e-03 -4.000000000000e-05 2.500000000000e-01
          1.496500000000e-02 -3.500000000000e-05 2.500000000000e-01
          1.677443424276e-02 6.998468275225e-03 2.500000000000e-01
          4.822088083234e-03 1.165051675041e-02 2.500000000000e-01
          -6.500000000000e-05 1.493500000000e-02 2.500000000000e-01
          -6.000000000000e-05 9.940000000000e-03 2.500000000000e-01
          2.149743116317e-02 2.109424932275e-02 2.500000000000e-01
          2.188497195671e-02 2.713234657639e-02 2.500000000000e-01
          2.584113280692e-02 2.530102585217e-02 2.500000000000e-01
          2.562998270984e-02 3.092620490060e-02 2.500000000000e-01
          1.505293989233e-02 2.166458483163e-02 2.500000000000e-01
          2.799984833780e-02 1.242946725955e-02 2.500000000000e-01
          2.589598956935e-02 1.735871033494e-02 2.500000000000e-01
          1.158752537914e-02 2.705072764978e-02 2.500000000000e-01
          1.086350397222e-02 4.442911632375e-02 2.500000000000e-01
          8.862640313189e-03 4.005922574703e-02 2.500000000000e-01
          4.444371390695e-02 1.086800748193e-02 2.500000000000e-01
          4.019349502782e-02 8.915935972628e-03 2.500000000000e-01
          3.652702837483e-02 1.220410368655e-02 2.500000000000e-01
          3.507366894497e-02 5.894876270694e-03 2.500000000000e-01
          1.183325400956e-02 3.616918500802e-02 2.500000000000e-01
          5.830165949509e-03 3.506532240324e-02 2.500000000000e-01
          3.931357249026e-02 4.425892410617e-03 2.500000000000e-01
          3.498500000000e-02 -1.500000000000e-05 2.500000000000e-01
          4.351250826792e-03 3.929763912234e-02 2.500000000000e-01
          -8.500000000000e-05 3.491500000000e-02 2.500000000000e-01
          2.340000000000e-02 4.380000000000e-02 2.500000000000e-01
          1.959920358377e-02 4.143929269431e-02 2.500000000000e-01
          3.490590697463e-02 2.879278566367e-02 2.500000000000e-01
          4.150000000000e-02 2.770000000000e-02 2.500000000000e-01
          3.840000000000e-02 3.150000000000e-02 2.500000000000e-01
          3.530000000000e-02 3.530000000000e-02 2.500000000000e-01
          3.081450475991e-02 3.046554489626e-02 2.500000000000e-01
          2.253306579218e-02 1.456333656569e-02 2.500000000000e-01
          2.356515006698e-02 1.000378312446e-02 2.500000000000e-01
          3.903409955508e-03 2.670542307332e-02 2.500000000000e-01
          -8.000000000000e-05 2.992000000000e-02 2.500000000000e-01
          2.673099877859e-02 3.952922489607e-03 2.500000000000e-01
          2.998000000000e-02 -2.000000000000e-05 2.500000000000e-01
          2.379584939667e-02 3.947561883102e-02 2.500000000000e-01
          2.052131802227e-02 3.683495904235e-02 2.500000000000e-01
          2.698517027344e-02 2.116683997215e-02 2.500000000000e-01
          1.011981244900e-02 3.202061063475e-02 2.500000000000e-01
          7.103580916550e-03 2.966409586122e-02 2.500000000000e-01
          3.254822177770e-02 1.041298916882e-02 2.500000000000e-01
          2.997850459073e-02 7.339980646430e-03 2.500000000000e-01
          4.182724752991e-02 1.908151306454e-02 2.500000000000e-01
          4.380000000000e-02 2.340000000000e-02 2.500000000000e-01
          1.926496239680e-02 1.068532926491e-02 2.500000000000e-01
          3.782134518065e-03 3.145077796757e-02 2.500000000000e-01
          3.147055127451e-02 3.847069491334e-03 2.500000000000e-01
          3.970084727914e-03 3.976177251874e-03 2.500000000000e-01
          -5.000000000000e-05 -5.000000000000e-05 2.500000000000e-01
          4.955000000000e-03 -4.500000000000e-05 2.500000000000e-01
          -5.500000000000e-05 4.945000000000e-03 2.500000000000e-01
          3.018308857122e-02 3.451693508378e-02 2.500000000000e-01
          2.834059967324e-02 2.774356040511e-02 2.500000000000e-01
          1.682705427827e-02 3.655049641988e-02 2.500000000000e-01
          7.462182811108e-03 2.552581631806e-02 2.500000000000e-01
          2.610879577743e-02 7.696789891732e-03 2.500000000000e-01
          1.746451159294e-02 2.958895468851e-03 2.500000000000e-01
          2.916898192219e-03 1.743548738558e-02 2.500000000000e-01
          7.747649241873e-03 3.135305259087e-03 2.500000000000e-01
          6.685668833589e-03 6.944877283965e-03 2.500000000000e-01
          3.119501094747e-03 7.744977764907e-03 2.500000000000e-01
          8.884838170095e-03 1.028076895183e-02 2.500000000000e-01
          4.004206817125e-02 2.255838275407e-02 2.500000000000e-01
          2.315264768193e-02 3.499297758697e-02 2.500000000000e-01
          4.499500000000e-02 -5.000000000000e-06 0.000000000000e+00
          5.000000000000e-02 0.000000000000e+00 0.000000000000e+00
          4.950000000000e-02 4.850000000000e-03 0.000000000000e+00
          4.800000000000e-03 4.945000000000e-02 0.000000000000e+00
          -1.000000000000e-04 4.990000000000e-02 0.000000000000e+00
          -9.500000000000e-05 4.490500000000e-02 0.000000000000e+00
          1.444856405498e-02 4.168404493369e-02 0.000000000000e+00
          1.910000000000e-02 4.610000000000e-02 0.000000000000e+00
          1.440000000000e-02 4.755000000000e-02 0.000000000000e+00
          4.755000000000e-02 1.440000000000e-02 0.000000000000e+00
          4.610000000000e-02 1.910000000000e-02 0.000000000000e+00
          4.192926950319e-02 1.488592319246e-02 0.000000000000e+00
          3.150000000000e-02 3.840000000000e-02 0.000000000000e+00
          2.770000000000e-02 4.150000000000e-02 0.000000000000e+00
          2.685944440358e-02 3.646841733752e-02 0.000000000000e+00
          8.053310985768e-03 1.603967310971e-02 0.000000000000e+00
          1.335810952330e-02 1.186675619328e-02 0.000000000000e+00
          1.272392712010e-02 1.745535262678e-02 0.000000000000e+00
          1.732765172956e-02 1.614694179524e-02 0.000000000000e+00
          9.894752522185e-03 2.163641512629e-02 0.000000000000e+00
          2.177221631729e-02 5.376359328563e-03 0.000000000000e+00
          1.997000000000e-02 -3.000000000000e-05 0.000000000000e+00
          2.497500000000e-02 -2.500000000000e-05 0.000000000000e+00
          4.609846197478e-03 2.178009872681e-02 0.000000000000e+00
          -7.500000000000e-05 2.492500000000e-02 0.000000000000e+00
          -7.000000000000e-05 1.993000000000e-02 0.000000000000e+00
          1.978520440480e-02 3.201727644524e-02 0.000000000000e+00
          1.442607991710e-02 3.182529250856e-02 0.000000000000e+00
          1.723642917256e-02 2.671349065238e-02 0.000000000000e+00
          4.900000000000e-02 9.700000000000e-03 0.000000000000e+00
          4.388632435373e-02 5.487866381779e-03 0.000000000000e+00
          3.999000000000e-02 -1.000000000000e-05 0.000000000000e+00
          3.708725387938e-02 2.455257455785e-02 0.000000000000e+00
          3.147769366852e-02 2.432626373736e-02 0.000000000000e+00
          3.661968325558e-02 1.891881046815e-02 0.000000000000e+00
[...]
      <PointData Scalars="DISPLACEMENT_X1">
        <DataArray type="Float64" Name="STRESS_XX" format="ascii">
          4.469218502242e-07 3.963165594219e-07 -4.141367769352e-08 -3.645360977226e-06 -3.669574906754e-06 -3.937545257671e-06 -3.729665704001e-06 -3.070855318970e-06 -3.392196927384e-06 -6.181288942623e-07 -7.238611714971e-07 -8.690927602903e-07 -2.374226713483e-06 -2.445595949554e-06 -2.918570132805e-06 -3.716639705286e-06 -3.144797575147e-06 -4.162306930056e-06 -3.152124046402e-06 -3.629212932004e-06 -2.886146538742e-06 -2.177081076452e-06 -2.494267936045e-06 -4.977076862941e-06 -5.112391952370e-06 -4.713673537937e-06 -3.200635705379e-06 -4.185857741904e-06 -3.777026251190e-06 -1.617533810598e-07 -6.622395428085e-08 -9.353755784739e-07 -1.378929312759e-06 -2.035160820905e-06 -1.376605125109e-06 -3.810824615541e-06 -2.957004253901e-06 -4.358908894645e-06 -1.943868860173e-06 -1.610835415447e-06 -9.563700063244e-07 -1.789922407328e-07 -1.280429808848e-06 -2.136432458386e-06 -3.526965547497e-06 -4.014721877610e-06 -3.831686316606e-06 -3.054257937155e-06 -3.519381886740e-06 -3.050075926077e-06 -3.429958478248e-06 -3.919776281099e-06 -2.092855378185e-06 -2.808547733935e-06 -4.206866336768e-06 -3.616533283378e-06 -4.222833612629e-06 -2.163290198827e-08 -7.288061387311e-07 -1.707309234088e-06 -1.647510568388e-06 -4.296317221196e-06 -4.622994670418e-06 -8.293240807833e-07 -1.593363521775e-06 -4.459474167968e-06 -4.606714932187e-06 -3.373092527781e-06 -3.320693377518e-06 -1.818631828465e-06 -1.127164434900e-06 -1.797567036480e-06 -2.074299811990e-06 -2.038744535193e-06 -2.500434230453e-06 -2.665401450536e-06 -4.913348449875e-06 -4.845440708667e-06 -2.613228671796e-06 -1.664326537180e-06 -3.264588491773e-06 -3.324369263890e-06 -2.550937421255e-06 -4.536094907523e-06 -4.859187067274e-06 -1.573267600979e-06 -1.902705608847e-06 -7.228985299891e-07 -1.154112955426e-06 -2.892509112562e-06 -4.517796331540e-06 -2.278165449580e-06 6.770641741828e-07 6.489803281588e-06 2.105282253358e-06 -2.162953824284e-06 -2.393813605972e-06 -2.740623795559e-06 -3.962203252507e-06 -4.716019551674e-06 -2.146013951897e-06 -2.229977405695e-06 -4.428782149375e-06 3.861412896100e-07 -1.418905044422e-06 -2.581797670929e-06 -1.458857717533e-06 -1.057300576233e-06 -3.215982955561e-06 4.162055696829e-07 9.966155130788e-08 9.169504689935e-09 -1.494146129911e-06 -1.620364549500e-06 -2.099732615276e-06 -2.183018701748e-06 -1.818357266833e-06 -1.675212038599e-06 -5.288812590099e-07 -7.111994490611e-07 -4.633458644913e-07 -2.087255285765e-06 -1.897770096429e-06 -2.206454379946e-06 -2.454301954577e-06 -1.397530626244e-06 -2.206483270634e-06 -1.812582247673e-06 -2.736412206655e-06 -5.397879315591e-07 -1.452414897981e-07 -4.389056524889e-07 -3.052825061249e-06 -3.126593371094e-06 -3.136207172553e-06 -2.602440455896e-06 -2.847938266252e-06 -2.581493552975e-06 -1.283902147560e-07 3.034420740949e-07 3.755902232191e-07 -1.550451295432e-06 -1.683204285078e-06 -1.088426515748e-06 -2.344858691335e-06 -1.208276353538e-06 -2.548690149669e-06 -1.274190548751e-06 -7.771754838496e-07 2.278698023050e-07 1.437828762940e-06 4.542747005972e-07 -5.608593051913e-07 -2.211373416181e-06 -2.894938281243e-06 -2.272835661898e-06 -2.102797799700e-06 -2.400254210171e-06 -2.024006310849e-06 -2.199590737043e-06 -2.397299273279e-06 -9.806681761710e-07 -1.527641141712e-06 -2.865406444563e-06 -1.954275008444e-06 -2.568861326117e-06 -5.951738246279e-08 3.464506416565e-08 -3.090107928797e-07 2.986093838428e-08 -2.684169775076e-06 -2.968602523465e-06 3.035848209857e-07 1.548241305827e-07 -2.833480732415e-06 -3.027167967673e-06 -2.061739816976e-06 -2.265638852409e-06 -1.636620212464e-06 -1.309163046888e-06 -1.664276068810e-06 -1.642673658727e-06 -1.846228044703e-06 -1.371499552949e-06 -9.710679293430e-07 -3.096060320673e-06 -3.263056596703e-06 -4.883871477605e-07 -3.321027113312e-07 -2.251352620271e-06 -2.478700659185e-06 -1.833612731999e-06 -2.932331661872e-06 -3.072668034803e-06 -4.668928677750e-07 -3.435124111088e-07 -8.984513811446e-07 -1.088213311980e-06 -1.124691983323e-06 -3.243534225272e-06 -1.304662481424e-07 1.355863420698e-06 6.883563638057e-06 3.192972135935e-06 -4.382361380451e-07 -1.965278376750e-06 -1.890243605196e-06 -2.602646101894e-06 -3.046608153563e-06 -6.153126279037e-07 4.356269583744e-09 -2.992826807252e-06 1.338715977157e-06 -4.570507765836e-07 -1.252040811834e-06 -1.321888555950e-06 -1.156609316503e-06 -2.319629532307e-06 4.348071051356e-08 9.218612214331e-08 6.405235090570e-06 5.705922495035e-06 5.494468639696e-07 1.188618055092e-07 -1.916276004543e-08 -7.677140520009e-09 -7.868786104185e-08 8.262487013096e-08 1.154212279175e-05 1.708665267193e-05 1.664322393665e-05 6.226561200714e-06 1.099924948752e-05 1.254610228552e-05 3.952101334008e-06 9.307813139200e-06 8.171654351408e-06 4.001189359347e-06 7.871463743333e-06 8.599830001084e-06 -1.386708742121e-07 -1.742497999224e-07 -7.114095734728e-08 -3.543016886542e-07 -2.169026063203e-07 -1.959686974177e-07 1.337987429828e-06 1.673154403174e-07 3.419524880292e-07 5.225102779749e-07 6.316847844801e-08 5.127827377531e-08 1.157291357396e-05 1.732519492115e-05 1.741019763564e-05 9.800529895780e-06 1.500956271657e-05 1.580777006812e-05 3.192823916887e-07 -9.218229957142e-08 4.722210237655e-08 -4.076891075445e-09 5.179541099724e-08 8.044934244703e-08 5.445807592312e-06 1.030528575948e-05 9.875760064985e-06 7.801961834398e-06 1.217852139526e-05 1.455370306126e-05 2.600860129536e-07 2.154088019067e-10 -1.486241156812e-07 5.288156078715e-06 9.442563705756e-06 1.043104029789e-05 4.600514734597e-07 -4.499373688442e-09 9.977675257905e-06 1.590691047334e-05 1.467099012905e-05 4.504029985885e-06 4.813825344060e-06 5.479810849825e-06 2.702860557443e-06 2.521464749159e-06 1.809576941181e-06 -2.278843353668e-06 -3.474428813914e-07 8.173177035824e-06 1.292322541839e-05 1.251439096224e-05 6.589092173156e-06 6.667840770636e-06 8.040347559137e-06 6.417515690386e-06 5.850852287044e-06 7.248178481375e-06 5.715767842644e-06 6.696018573670e-06 1.237058259052e-05 1.139677119129e-05 4.231131385257e-07 9.416995092091e-07 8.857506534750e-07 1.328201175340e-07 9.314879252129e-07 1.436705365771e-06 1.663537984016e-06 1.239530592575e-06 2.218009994078e-06 2.531943235983e-06 2.714509082957e-06 2.314029157002e-06 6.177779611822e-07 6.886596644643e-07 1.821081047071e-07 1.282660733182e-07 -5.748849883050e-07 -4.595843625665e-07 -6.293364485099e-07 5.765794609327e-06 1.042512675956e-05 8.503005656074e-06 4.964414521462e-06 9.587121956460e-06 9.305199607941e-06 -1.925175477621e-08 -2.844584049052e-07 -1.560105490720e-07 1.690264947266e-07 8.085739063828e-07 -6.785871220000e-07 -1.082991952072e-06 1.664368126776e-06 7.715216406486e-07 5.012402948997e-07 1.808401746326e-06 3.084777908705e-06 -1.888467784816e-07 -3.008743899950e-07 3.308111875988e-06 3.522906247981e-06 4.879565776328e-06 4.190400418312e-06 4.134100455122e-06 8.214380684842e-06 -2.075661883359e-07 -1.794485933922e-07 4.270967415263e-06 8.663135238803e-06 1.154712597414e-05 1.731888635207e-05 1.595606840292e-05 9.619114528607e-06 9.518355762158e-06 3.541103560304e-06 2.987089000002e-06 1.645145260218e-06 1.106057418699e-05 8.599851236653e-06 8.787005432276e-06 1.024129893856e-05 7.814757738267e-06 1.197730430058e-06 9.106448167021e-07 6.409043118015e-07 1.346268686753e-06 8.396723011286e-07 1.407626732212e-06 1.538816606772e-06 1.948348737161e-07 2.752155170756e-07 3.399048034013e-07 5.443096950349e-07 6.958994350082e-07 -1.212682844782e-06 -1.487184906433e-06 -8.628481879937e-07 4.681722436606e-07 -3.056308773767e-07 -6.709880513837e-08 -4.563542962780e-07 -1.555031466228e-07 6.828205941038e-07 2.201105740488e-06 3.296453261559e-06 2.721179916723e-06 1.907726801689e-06 1.776839384959e-06 1.534016240660e-06 1.213275280901e-06 6.077431809596e-06 6.107088164086e-06 1.027394394204e-05 2.360691965316e-06 1.616348946889e-06 1.459557984547e-06 3.796173685720e-06 2.902154869945e-06 2.836384652512e-06 3.718424113475e-06 2.421303851739e-06 1.961066605668e-06 3.500612927137e-06 4.431957919178e-06 5.775736150800e-06 3.585802905152e-06 2.985403422493e-06 -2.271272419326e-07 -4.763294965867e-07 -7.060794823554e-07 -2.929672505185e-07 1.529358043095e-06 1.291008612488e-06 9.559138775025e-07 2.194537803594e-06 1.280027603201e-06 9.547729377853e-07 1.595522170186e-06 4.339754965314e-06 4.360088123730e-06 3.157822408849e-06 6.374862228221e-08 -1.618609868359e-07 4.417688073344e-06 3.276772195384e-06 1.397308289638e-06 1.350503167741e-06 2.263685916078e-06 1.378251779914e-06 1.213659867457e-06 1.571996464319e-06 7.991807958427e-07 1.050827399096e-06 4.925305170131e-07 7.475235360784e-07 2.209223396275e-07 1.531870966701e-07 3.037529669303e-06 2.470171496238e-06 2.805386803819e-06 4.080962260313e-06 3.882270634494e-06 4.525865939797e-07 -1.053857974714e-07 1.566642253874e-07 5.457686439500e-07 1.101975953806e-06 1.359342707927e-06 1.198636375340e-07 1.827150413636e-06 2.348017670221e-06 -8.609608024044e-07 -2.483016593224e-07 -8.338978582718e-07 -6.992224018676e-07 -4.415385933419e-07 -3.397571343378e-07 -8.889702815989e-07 -6.828575059971e-07 2.390914925105e-06 2.696247493636e-06 3.814058840016e-06 1.151875865801e-07 5.825454665320e-07 3.858778514921e-07 -1.537005971978e-07 -1.539296172008e-07 2.031992125863e-06 6.796584054077e-06 4.535887806097e-07 1.544597842222e-08 3.157739130241e-06 7.707644369267e-06 1.893878060266e-06 2.085695721712e-06 2.180273966220e-06 5.569403868543e-06 1.064716113467e-05 9.765171368858e-06 4.323012127038e-07 1.254832276606e-07 4.090068863594e-07 3.089637153299e-07 1.953617369802e-07 1.555729564432e-07 7.747358456397e-07 1.017643849928e-06 1.856167750850e-06 1.507934272856e-07 2.921240352579e-07 1.554348308767e-07 6.706999821082e-07 4.993163579492e-07 -2.022143863714e-06 -4.100165600268e-07 4.499017964695e-06 3.626028019510e-06 3.460934818955e-06 4.128742889600e-06 -6.263250823905e-07 -7.067019330472e-07 8.556895955918e-06 3.191878041337e-07 2.257239729945e-07 3.156535109400e-06 2.644830807062e-06 5.447491254800e-06 5.751827551071e-06 1.280681059481e-05 1.769375456255e-05 3.357280038641e-06 3.718989990532e-06 3.972014936050e-06 2.921455024563e-06 -1.254866896320e-07 3.123781757708e-07 -1.545279340289e-07 1.479090624978e-06 6.243763908268e-07 9.321786152859e-08 -5.636730391186e-07 5.227839938726e-08 -1.516565628457e-06 -4.351794165683e-07 -1.385155843020e-06 -2.284935253716e-06 9.641033566118e-07 1.426137275881e-06 2.086763550876e-06 1.826174624372e-06 2.712990000752e-06 -5.620930458120e-08 -2.511080489551e-07 1.804788769791e-07 -6.223009698843e-07 4.124007289737e-06 5.169963311236e-06 6.843798044358e-06 1.025760533532e-05 1.594543896099e-07 1.214532145655e-05 1.671624264602e-05 1.042284967096e-05 1.422776940352e-05 6.179381274822e-07 1.064583542654e-06 1.221582418628e-06 4.570929248734e-07 2.635980379425e-06 3.626185840192e-06 3.905766873813e-06 3.487051923755e-07 1.802016464936e-07 4.859430426517e-07 -3.062097767940e-08 -5.880934008909e-07 -8.522805774458e-07 9.515001662480e-06 1.480795725639e-05 6.262102271208e-06 8.093925823234e-07 1.253653289821e-06 6.145120088835e-07 3.262632492216e-07 -9.398375100685e-07 -1.065127275357e-06 8.636933172697e-07 3.363953767395e-08 1.276022213094e-06 4.115120359286e-08 6.152189423761e-07 -4.432421954737e-07 -2.783385160334e-07 -1.587517215956e-06 -1.676569032803e-06 2.717424880869e-06 3.970850553999e-06 3.563841527369e-06 5.347563922046e-06 4.709692069464e-06 6.212938044859e-07 2.451366070133e-07 5.481436896500e-06 3.841462996294e-06 5.539194842289e-06 7.777932036311e-06 2.710480426364e-06 3.825897301783e-06 2.795272695858e-06 1.858438031614e-06 1.242140386981e-05 9.877058620132e-06 2.062701110789e-06 1.222738283246e-06 2.046604714357e-06 3.644841216014e-06 3.286558291056e-06 2.500739348192e-06 2.704544078883e-06 8.182487723875e-06 8.823352242763e-06 7.326627398256e-06 7.559521322434e-06 5.119849420611e-08 -1.768174446119e-07 1.885259162938e-07 6.033295873104e-06 6.239791271361e-06 1.083371707959e-05 4.809824915834e-06 -4.706282355611e-07 6.684877425274e-07 1.877389069686e-06 2.135495150067e-06 -4.273931117798e-07 -7.651444179152e-07 -1.184320867746e-06 3.130155533610e-06 2.152599626070e-06 1.549370531006e-06 -2.066806580103e-07 -3.163677306185e-07 6.952788778576e-09 2.896620981000e-06 6.839130859415e-06 -3.353916861866e-07 -4.419323382502e-07 3.762179853449e-06 7.469294295613e-06 2.286565793745e-07 -1.124455546157e-07 5.273841228276e-07 8.707205060669e-08 1.654575321937e-07 9.462689064173e-07 1.249543173696e-05 -4.424402106906e-07 -2.116706247316e-07 -6.176341561790e-07 -7.820608009190e-07 5.470949054774e-07 1.426359319496e-06 1.070481739622e-06 7.127894412978e-08 4.728928200137e-06 6.816678344807e-06 1.994594379101e-06 2.121833379113e-06 2.119377977235e-06 3.827423274672e-06 9.103552890484e-06 -7.245360361057e-10 6.528621564349e-08 4.166060602174e-06 1.003779415557e-05 9.691327238196e-07 5.396981383280e-07 2.401774545630e-06 1.429736337322e-06 6.196217525626e-06 2.664359729139e-07 8.297589097298e-07 1.212793418996e-06 7.368869996026e-06 -4.921584159471e-07 5.171915485399e-06 4.490290047343e-06 2.957980443302e-07 3.595887866359e-06 -4.735894111794e-07 3.504995999245e-06 2.061586461011e-06 8.833661990071e-06 7.280910197061e-06 7.695629037100e-06 -1.381457990795e-06 -1.459880281497e-06 -1.287937781721e-06 -6.020342480465e-07 -3.878880757332e-07 -5.033097158095e-07 8.701406386662e-06 9.961768780772e-06 -1.953616822018e-07 6.001244148780e-06 3.391656726670e-06 7.593209391202e-07 1.128983203136e-06 5.687673408667e-06 5.837145049008e-06 9.705177613942e-09 3.376544434334e-06 3.724159488350e-06 1.192318637330e-05 6.350695074945e-06 5.993514640280e-06 5.236037506921e-06 1.270117604741e-07 4.716950483171e-07 -7.959182794319e-08 4.586120011248e-06 4.363099922096e-06 8.017525768072e-06 9.365892739818e-06 1.982832123441e-06 1.094137240365e-06 2.919232862849e-08 -1.858233942212e-06 -1.657108794414e-06 1.573924364009e-07 1.533540221794e-07 1.388965744372e-05 1.832600510306e-05 2.075516860946e-06 1.341852707134e-06 1.904918419922e-06 3.750315594520e-06 5.176179594502e-06 4.485008854556e-06 2.740556592139e-06 2.120727192177e-06 -1.885047610154e-06 -4.198608925717e-07 7.322590560157e-06 1.118410549442e-06 -3.618428571291e-07 2.753121868371e-06 1.120246149812e-07 6.143180502812e-07 5.503544775465e-07 3.693820508725e-09 1.465449761540e-06 -8.803920513670e-07 4.853598918094e-06 6.209223593549e-06 1.161755058228e-06 4.093728783398e-06 6.873103524304e-06 5.731862804422e-06 7.680914697235e-07 9.156553287558e-06 6.716491802474e-06 1.112642581491e-05 4.571918368927e-07 1.452753009001e-07 1.938084350191e-07 -7.067628978360e-08 1.294129804600e-05 2.777758452884e-07 1.461296569557e-06 -3.656177648637e-07 -5.644830225471e-07 8.084309768779e-07 1.718445270230e-06 1.156552773729e-06 -7.158814165760e-07 1.071483836827e-06 1.322688605517e-06 3.526377958307e-06 4.803752790838e-06 1.629998262920e-06 7.039350057525e-07 6.670168389967e-07 1.528548653503e-06 5.237783476736e-07 1.663268274410e-06 -5.266014223623e-08 4.689470323171e-08 5.437133195348e-06 9.004632389065e-07 1.991927366163e-06 8.438962972572e-06 4.603087803664e-07 1.329212784926e-06 1.354025160105e-06 1.968903933928e-06 1.896600978589e-06 -4.424851440316e-07 -2.374273456322e-06 -4.983587159736e-07 -1.097057213036e-06 -5.295473314293e-07 4.672826603066e-07 1.004634317573e-05 6.638478502234e-06 8.909179623807e-06 -6.103877788725e-07 -3.919431540211e-07 -1.478036609351e-06 -2.971017723199e-07 6.011833119366e-07 2.988300823858e-06 7.671750275525e-06 6.812161378959e-06 2.262036432240e-07 1.999880319126e-07 4.312848445339e-06 -4.692744213960e-08 2.779092346418e-07 1.083291230243e-05 2.803486104893e-06 5.270292182225e-07 5.497451878216e-06 4.608044823249e-07 1.587127157600e-07 6.536432767918e-06 -5.451931720894e-07 -8.671610350082e-07 8.578186127650e-07 7.285461363017e-06 6.496696195038e-06 1.135932428860e-06 2.586759014160e-06 1.907880230520e-07 1.688398869678e-06 8.703423315382e-09 2.463805682170e-06 9.903635908725e-07 2.934371508572e-06 -1.077718383868e-06 1.135349380214e-06 6.975328417549e-06 1.921531534007e-06 4.566379818272e-06 -2.148690223048e-06 -4.183281129236e-07 2.178444899315e-06 -3.464017695650e-07 -1.606853612390e-07 -2.718767935722e-07 -2.632012351030e-07 -1.932279978985e-07 -2.379123005516e-07 -2.751196008788e-07 -3.602257013174e-07 -6.695811071314e-07 -5.711173309513e-07 -2.102251608349e-07 -7.042745826031e-08 -1.836156624154e-07 -2.569293865810e-07 -2.646919852683e-07 -3.560350736083e-07 -3.336562505015e-07 -2.172537374889e-07 -2.732639139783e-07 -1.537386200074e-07 -1.272928331630e-07 -2.281303072079e-07 -3.294059597684e-07 -1.312978788285e-07 -6.478496026061e-07 -2.169320903899e-07 -8.779474211826e-08 -2.066787787333e-07 -1.536612929491e-07 -9.897035717949e-08 -1.886187843938e-07 -3.421166999572e-07 1.789260144306e-07 2.168062888478e-08 -1.314066213867e-08 8.877104020385e-07 7.451802711185e-07 2.015047417814e-07 -5.863564442580e-07 -4.921413549649e-07 -4.666836080543e-07 1.489047050530e-07 -1.142328646120e-07 -6.799742913177e-08 2.463701895827e-07 2.825980542169e-08 1.629111716935e-07 2.945364357150e-07 3.962856919899e-07 6.174997409699e-07 -4.669091908167e-08 -6.613562669363e-08 -1.196520990436e-07 1.170931073090e-08 -2.316619100403e-07 -1.895645323676e-07 1.273818529176e-08 -3.106379800795e-07 6.620800988936e-08 1.213013267821e-07 1.337058538454e-07 2.786402899524e-07 8.769704279247e-07 2.671119790046e-07 3.227536139461e-07 1.089973289650e-07 1.697190120294e-07 6.400371566073e-09 -2.134639996123e-07 -4.057753861315e-07 -2.554280786882e-08 -3.309829298291e-07 1.565268738081e-07 6.597112394640e-08 -5.143561206585e-09 -1.336376728784e-07 3.022176944679e-08 6.867732210086e-09 -3.667019827897e-07 -5.468542910059e-07 -2.060630158112e-07 -1.634633503519e-07 -4.619481074207e-07 -1.819655188433e-07 6.811078623326e-08 -3.000942040791e-07 -1.589348745734e-08 5.675751105956e-07 -3.678962020655e-07 7.776551596993e-07 9.275180759946e-07 3.866026435280e-07 2.510337158886e-08 -4.888570243426e-07 1.059160374221e-08 -1.466477581485e-07 -1.608058797527e-07 6.956887683213e-08 1.927529671677e-07 -1.550210213530e-07 1.077479900364e-08 -7.064901941245e-07 -1.049445280874e-06 -4.685131125726e-07 -5.970015764338e-07 -6.207400133660e-07 -5.007194335086e-07 -6.458768251585e-07 -6.273650997960e-07 -5.569141201534e-07 -6.366934173465e-07 -5.491646514323e-07 -5.482121476774e-07 -6.381742554037e-07 -6.763012544949e-07 -5.819736014089e-07 -7.161849663582e-07 -4.069566995242e-07 -5.784631814443e-07 -5.137720305982e-07 -5.857118727063e-07 -6.670224202976e-07 -8.649754118394e-07 2.421034953848e-07 -7.500189691534e-09 2.230251324361e-07 -6.177534398392e-07 -7.855786903950e-07 -7.193910070609e-07 -5.946495059324e-07 -7.659259735584e-07 -6.729956146071e-07 -4.647831437129e-07 -4.929600231351e-07 -6.706464613278e-07 -1.638251205804e-07 -2.066933774136e-07 -2.023315955668e-07 -1.154307028036e-07 -2.975597276972e-07 -2.010270175138e-07 5.825973607247e-07 2.514755267358e-07 4.214283004641e-07 -2.502796181044e-07 -4.604650472473e-07 -4.022300367964e-07 2.898861377313e-07 9.391332729998e-08 6.554045564044e-08 -4.254020833372e-07 -7.293865796972e-07 -6.920149298632e-07 -2.654770145198e-07 -4.127277181354e-07 -5.286663669057e-07 -9.813971569797e-08 -1.504872696382e-07 -2.637148962166e-07 -4.512474262993e-07 -6.806366419612e-07 -7.693565963073e-07 -4.008521157968e-07 -6.244470803033e-07 -6.186872149779e-07 -3.956538708808e-07 -5.980222935372e-07 -6.104978947136e-07 1.133511578303e-07 3.209402426485e-07 3.243412747267e-07 -4.559340443460e-07 -6.353476186642e-07 -3.510581038831e-07 -5.329741966777e-07 -4.867388643618e-07 -6.123134974464e-07 -7.768115537981e-07 -5.506076122449e-07 -5.589393708168e-07 -6.357053185191e-07 -5.600815481621e-07 -4.232911509823e-07 -5.790639472740e-07 -3.740194097028e-07 -4.918269879756e-07 -2.502478934198e-07 -4.365811699566e-07 -4.487106756971e-07 -7.056526264550e-08 1.535217371007e-07 -4.564825985061e-07 -5.763089654880e-08