<?xml version="1.0"?>
<!-- Time step: 1 | Time: 5.184000000000e+06 -->
<VTKFile type="UnstructuredGrid" version="0.1" byte_order="LittleEndian">
  <UnstructuredGrid>
    <Piece NumberOfPoints="7" NumberOfCells="6">
      <Points>
        <DataArray type="Float64" NumberOfComponents="3" format="ascii">
          0.000000000000e+00 0.000000000000e+00 0.000000000000e+00
          1.178511397694e+00 0.000000000000e+00 1.178511397694e+00
          2.357022795387e+00 0.000000000000e+00 2.357022795387e+00
          3.535534193081e+00 0.000000000000e+00 3.535534193081e+00
          4.714045590775e+00 0.000000000000e+00 4.714045590775e+00
          5.892556988469e+00 0.000000000000e+00 5.892556988469e+00
          7.071068386162e+00 0.000000000000e+00 7.071068386162e+00
        </DataArray>
      </Points>
      <Cells>
        <DataArray type="Int64" Name="connectivity" format="ascii">
          0 1 
          1 2 
          2 3 
          3 4 
          4 5 
          5 6 
        </DataArray>
        <DataArray type="Int64" Name="offsets" format="ascii">
          2 4 6 8 10 12 
        </DataArray>
        <DataArray type="UInt8" Name="types" format="ascii">
          3 3 3 3 3 3 
        </DataArray>
      </Cells>
      <PointData Scalars="PRESSURE1">
        <DataArray type="Float64" Name="PRESSURE1" format="ascii">
          2.129367185741e+06 2.107805988118e+06 2.086244790494e+06 2.064683592871e+06 2.043122395247e+06 2.021561197624e+06 2.000000000000e+06 
        </DataArray>
      </PointData>
      <CellData>
        <DataArray type="Float64" Name="ELEMENT_VELOCITY" NumberOfComponents="3" format="ascii">
          1.414213562373e-03 0.000000000000e+00 1.414213562373e-03 1.414213562373e-03 0.000000000000e+00 1.414213562373e-03 1.414213562373e-03 0.000000000000e+00 1.414213562373e-03 1.414213562373e-03 0.000000000000e+00 1.414213562373e-03 1.414213562373e-03 0.000000000000e+00 1.414213562373e-03 1.414213562373e-03 0.000000000000e+00 1.414213562373e-03 
        </DataArray>
      </CellData>
    </Piece>
  </UnstructuredGrid>
</VTKFile>
