<?xml version="1.0"?>
<VTKFile type="UnstructuredGrid" version="0.1" byte_order="LittleEndian">
  <UnstructuredGrid>
    <Piece NumberOfPoints="144" NumberOfCells="188">
      <Points>
        <DataArray type="Float64" NumberOfComponents="3" format="ascii">
          3.749999999997e-01 0.000000000000e+00 0.000000000000e+00
          3.708365483538e-01 1.000000000000e-02 0.000000000000e+00
          3.645833333330e-01 0.000000000000e+00 0.000000000000e+00
          3.645833333335e-01 2.000000000000e-02 0.000000000000e+00
          3.750000000002e-01 2.000000000000e-02 0.000000000000e+00
          3.604359567901e-01 1.000000000000e-02 0.000000000000e+00
          1.249999999997e-01 0.000000000000e+00 0.000000000000e+00
          1.187499994574e-01 1.000000012404e-02 0.000000000000e+00
          1.145833333331e-01 0.000000000000e+00 0.000000000000e+00
          1.297453702800e-01 1.000000002067e-02 0.000000000000e+00
          1.145833333338e-01 2.000000000000e-02 0.000000000000e+00
          1.250000000005e-01 2.000000000000e-02 0.000000000000e+00
          5.208333333321e-02 0.000000000000e+00 0.000000000000e+00
          4.568142361115e-02 1.003472222222e-02 0.000000000000e+00
          4.166666666657e-02 0.000000000000e+00 0.000000000000e+00
          5.622468171301e-02 1.000578703704e-02 0.000000000000e+00
          4.166666666684e-02 2.000000000000e-02 0.000000000000e+00
          5.208333333355e-02 2.000000000000e-02 0.000000000000e+00
          6.249999999985e-02 0.000000000000e+00 0.000000000000e+00
          6.666244695222e-02 1.000096450617e-02 0.000000000000e+00
          6.250000000026e-02 2.000000000000e-02 0.000000000000e+00
          7.291666666649e-02 0.000000000000e+00 0.000000000000e+00
          7.708263004765e-02 1.000016075103e-02 0.000000000000e+00
          7.291666666697e-02 2.000000000000e-02 0.000000000000e+00
          8.333333333313e-02 0.000000000000e+00 0.000000000000e+00
          8.749988278579e-02 1.000002679184e-02 0.000000000000e+00
          8.333333333368e-02 2.000000000000e-02 0.000000000000e+00
          1.041666666664e-01 0.000000000000e+00 0.000000000000e+00
          9.791664713104e-02 1.000000446531e-02 0.000000000000e+00
          9.374999999977e-02 0.000000000000e+00 0.000000000000e+00
          1.083333300775e-01 1.000000074422e-02 0.000000000000e+00
          9.375000000039e-02 2.000000000000e-02 0.000000000000e+00
          1.041666666671e-01 2.000000000000e-02 0.000000000000e+00
          3.615089699076e-02 9.276620370370e-03 0.000000000000e+00
          3.124999999993e-02 0.000000000000e+00 0.000000000000e+00
          3.125000000013e-02 2.000000000000e-02 0.000000000000e+00
          1.354166666664e-01 0.000000000000e+00 0.000000000000e+00
          1.388888888890e-01 1.000000000000e-02 0.000000000000e+00
          1.354166666672e-01 2.000000000000e-02 0.000000000000e+00
          3.333333333329e-01 0.000000000000e+00 0.000000000000e+00
          3.286072530864e-01 1.000000000000e-02 0.000000000000e+00
          3.229166666663e-01 0.000000000000e+00 0.000000000000e+00
          3.229166666671e-01 2.000000000000e-02 0.000000000000e+00
          3.333333333337e-01 2.000000000000e-02 0.000000000000e+00
          3.188657407407e-01 1.000000000000e-02 0.000000000000e+00
          2.916666666662e-01 0.000000000000e+00 0.000000000000e+00
          2.876157407408e-01 1.000000000000e-02 0.000000000000e+00
          2.812499999996e-01 0.000000000000e+00 0.000000000000e+00
          2.812500000006e-01 2.000000000000e-02 0.000000000000e+00
          2.916666666672e-01 2.000000000000e-02 0.000000000000e+00
          2.777777777778e-01 1.000000000000e-02 0.000000000000e+00
          3.020833333329e-01 0.000000000000e+00 0.000000000000e+00
          2.973572530865e-01 1.000000000000e-02 0.000000000000e+00
          3.020833333338e-01 2.000000000000e-02 0.000000000000e+00
          3.541666666663e-01 0.000000000000e+00 0.000000000000e+00
          3.541666666669e-01 2.000000000000e-02 0.000000000000e+00
          3.501157407407e-01 1.000000000000e-02 0.000000000000e+00
          2.708333333329e-01 0.000000000000e+00 0.000000000000e+00
          2.708333333339e-01 2.000000000000e-02 0.000000000000e+00
          2.662960273285e-01 1.000000000000e-02 0.000000000000e+00
          3.124999999996e-01 0.000000000000e+00 0.000000000000e+00
          3.090277777778e-01 1.000000000000e-02 0.000000000000e+00
          3.125000000004e-01 2.000000000000e-02 0.000000000000e+00
          3.437499999996e-01 0.000000000000e+00 0.000000000000e+00
          3.402777777777e-01 1.000000000000e-02 0.000000000000e+00
          3.437500000003e-01 2.000000000000e-02 0.000000000000e+00
          2.604166666662e-01 0.000000000000e+00 0.000000000000e+00
          2.604166666673e-01 2.000000000000e-02 0.000000000000e+00
          4.479166666665e-01 0.000000000000e+00 0.000000000000e+00
          4.444444444444e-01 1.000000000000e-02 0.000000000000e+00
          4.374999999998e-01 0.000000000000e+00 0.000000000000e+00
          4.375000000001e-01 2.000000000000e-02 0.000000000000e+00
          4.479166666667e-01 2.000000000000e-02 0.000000000000e+00
          4.327551654664e-01 1.000000000000e-02 0.000000000000e+00
          4.687499999999e-01 0.000000000000e+00 0.000000000000e+00
          4.637998730067e-01 1.072916666667e-02 0.000000000000e+00
          4.583333333332e-01 0.000000000000e+00 0.000000000000e+00
          4.583333333334e-01 2.000000000000e-02 0.000000000000e+00
          4.687500000000e-01 2.000000000000e-02 0.000000000000e+00
          4.542824074074e-01 1.000000000000e-02 0.000000000000e+00
          3.958333333331e-01 0.000000000000e+00 0.000000000000e+00
          3.923611111110e-01 1.000000000000e-02 0.000000000000e+00
          3.854166666664e-01 0.000000000000e+00 0.000000000000e+00
          3.854166666668e-01 2.000000000000e-02 0.000000000000e+00
          3.958333333335e-01 2.000000000000e-02 0.000000000000e+00
          3.806718321330e-01 1.000000000000e-02 0.000000000000e+00
          4.270833333331e-01 0.000000000000e+00 0.000000000000e+00
          4.229198816872e-01 1.000000000000e-02 0.000000000000e+00
          4.166666666664e-01 0.000000000000e+00 0.000000000000e+00
          4.166666666668e-01 2.000000000000e-02 0.000000000000e+00
          4.270833333334e-01 2.000000000000e-02 0.000000000000e+00
          4.125192901234e-01 1.000000000000e-02 0.000000000000e+00
          4.062499999998e-01 0.000000000000e+00 0.000000000000e+00
          4.021990740740e-01 1.000000000000e-02 0.000000000000e+00
          4.062500000001e-01 2.000000000000e-02 0.000000000000e+00
          1.770833333330e-01 0.000000000000e+00 0.000000000000e+00
          1.714088220166e-01 1.000000000000e-02 0.000000000000e+00
          1.666666666663e-01 0.000000000000e+00 0.000000000000e+00
          1.805555555557e-01 1.000000000000e-02 0.000000000000e+00
          1.666666666672e-01 2.000000000000e-02 0.000000000000e+00
          1.770833333339e-01 2.000000000000e-02 0.000000000000e+00
          2.395833333329e-01 0.000000000000e+00 0.000000000000e+00
          2.344865997361e-01 1.000000000000e-02 0.000000000000e+00
          2.291666666662e-01 0.000000000000e+00 0.000000000000e+00
          2.291666666673e-01 2.000000000000e-02 0.000000000000e+00
          2.395833333340e-01 2.000000000000e-02 0.000000000000e+00
          1.874999999996e-01 0.000000000000e+00 0.000000000000e+00
          1.915509259260e-01 1.000000000000e-02 0.000000000000e+00
          1.875000000006e-01 2.000000000000e-02 0.000000000000e+00
          1.458333333330e-01 0.000000000000e+00 0.000000000000e+00
          1.498842592594e-01 1.000000000000e-02 0.000000000000e+00
          1.458333333339e-01 2.000000000000e-02 0.000000000000e+00
          1.603973765433e-01 1.000000000000e-02 0.000000000000e+00
          1.562499999997e-01 0.000000000000e+00 0.000000000000e+00
          1.562500000006e-01 2.000000000000e-02 0.000000000000e+00
          1.979166666663e-01 0.000000000000e+00 0.000000000000e+00
          2.020640432100e-01 1.000000000000e-02 0.000000000000e+00
          1.979166666673e-01 2.000000000000e-02 0.000000000000e+00
          2.083333333329e-01 0.000000000000e+00 0.000000000000e+00
          2.135276644174e-01 1.000000000000e-02 0.000000000000e+00
          2.083333333340e-01 2.000000000000e-02 0.000000000000e+00
          2.187499999996e-01 0.000000000000e+00 0.000000000000e+00
          2.187500000007e-01 2.000000000000e-02 0.000000000000e+00
          2.576437114199e-02 9.402006172840e-03 0.000000000000e+00
          2.083333333328e-02 0.000000000000e+00 0.000000000000e+00
          4.742238237043e-01 1.059895833333e-02 0.000000000000e+00
          4.791666666667e-01 2.000000000000e-02 0.000000000000e+00
          2.083333333342e-02 2.000000000000e-02 0.000000000000e+00
          4.791666666666e-01 0.000000000000e+00 0.000000000000e+00
          2.449718312440e-01 1.000000000000e-02 0.000000000000e+00
          2.553501986510e-01 1.000000000000e-02 0.000000000000e+00
          4.852873039507e-01 1.176649305556e-02 0.000000000000e+00
          4.895833333333e-01 2.000000000000e-02 0.000000000000e+00
          1.471072852368e-02 1.156700102881e-02 0.000000000000e+00
          1.041666666664e-02 0.000000000000e+00 0.000000000000e+00
          2.239745995812e-01 1.000000000000e-02 0.000000000000e+00
          2.499999999995e-01 0.000000000000e+00 0.000000000000e+00
          2.500000000007e-01 2.000000000000e-02 0.000000000000e+00
          1.041666666671e-02 2.000000000000e-02 0.000000000000e+00
          4.895833333333e-01 0.000000000000e+00 0.000000000000e+00
          5.000000000000e-01 2.000000000000e-02 0.000000000000e+00
          0.000000000000e+00 0.000000000000e+00 0.000000000000e+00
          0.000000000000e+00 2.000000000000e-02 0.000000000000e+00
          5.000000000000e-01 0.000000000000e+00 0.000000000000e+00
        </DataArray>
      </Points>
      <Cells>
        <DataArray type="Int32" Name="connectivity" format="ascii">
          0 1 2 
          3 1 4 
          3 5 1 
          5 2 1 
          6 7 8 
          6 9 7 
          10 7 11 
          9 11 7 
          12 13 14 
          12 15 13 
          16 13 17 
          15 17 13 
          18 15 12 
          18 19 15 
          17 15 20 
          19 20 15 
          21 19 18 
          21 22 19 
          20 19 23 
          22 23 19 
          24 22 21 
          24 25 22 
          23 22 26 
          25 26 22 
          27 28 29 
          27 30 28 
          31 28 32 
          30 32 28 
          8 30 27 
          8 7 30 
          32 30 10 
          7 10 30 
          14 33 34 
          14 13 33 
          35 33 16 
          13 16 33 
          29 25 24 
          29 28 25 
          26 25 31 
          28 31 25 
          36 9 6 
          36 37 9 
          11 9 38 
          37 38 9 
          39 40 41 
          42 40 43 
          42 44 40 
          44 41 40 
          45 46 47 
          48 46 49 
          48 50 46 
          50 47 46 
          51 52 45 
          49 52 53 
          49 46 52 
          46 45 52 
          2 5 54 
          55 5 3 
          55 56 5 
          56 54 5 
          47 50 57 
          58 50 48 
          58 59 50 
          59 57 50 
          60 61 51 
          53 61 62 
          53 52 61 
          52 51 61 
          63 64 39 
          43 64 65 
          43 40 64 
          40 39 64 
          41 44 60 
          62 44 42 
          62 61 44 
          61 60 44 
          54 56 63 
          65 56 55 
          65 64 56 
          64 63 56 
          57 59 66 
          67 59 58 
          68 69 70 
          71 69 72 
          71 73 69 
          73 70 69 
          74 75 76 
          77 75 78 
          77 79 75 
          79 76 75 
          80 81 82 
          83 81 84 
          83 85 81 
          85 82 81 
          86 87 88 
          89 87 90 
          89 91 87 
          91 88 87 
          92 93 80 
          84 93 94 
          84 81 93 
          81 80 93 
          88 91 92 
          94 91 89 
          94 93 91 
          93 92 91 
          82 85 0 
          4 85 83 
          4 1 85 
          1 0 85 
          70 73 86 
          90 73 71 
          90 87 73 
          87 86 73 
          76 79 68 
          72 79 77 
          72 69 79 
          69 68 79 
          95 96 97 
          95 98 96 
          99 96 100 
          98 100 96 
          101 102 103 
          104 102 105 
          106 98 95 
          106 107 98 
          100 98 108 
          107 108 98 
          109 37 36 
          109 110 37 
          38 37 111 
          110 111 37 
          97 112 113 
          97 96 112 
          114 112 99 
          96 99 112 
          113 110 109 
          113 112 110 
          111 110 114 
          112 114 110 
          115 107 106 
          115 116 107 
          108 107 117 
          116 117 107 
          118 116 115 
          118 119 116 
          117 116 120 
          119 120 116 
          121 119 118 
          120 119 122 
          34 123 124 
          123 34 33 
          78 125 126 
          125 78 75 
          33 35 123 
          74 125 75 
          127 123 35 
          128 125 74 
          129 102 101 
          102 129 105 
          59 130 66 
          130 59 67 
          131 132 126 
          133 134 124 
          135 102 104 
          102 135 103 
          125 131 126 
          123 133 124 
          135 121 103 
          122 135 104 
          136 129 101 
          129 137 105 
          130 136 66 
          137 130 67 
          125 128 131 
          123 127 133 
          127 138 133 
          128 139 131 
          121 135 119 
          135 122 119 
          129 136 130 
          137 129 130 
          132 131 140 
          141 134 133 
          141 138 142 
          133 138 141 
          140 139 143 
          140 131 139 
        </DataArray>
        <DataArray type="Int32" Name="offsets" format="ascii">
          3 6 9 12 15 18 21 24 27 30 33 36 39 42 45 48 51 54 57 60 63 66 69 72 75 78 81 84 87 90 93 96 99 102 105 108 111 114 117 120 123 126 129 132 135 138 141 144 147 150 153 156 159 162 165 168 171 174 177 180 183 186 189 192 195 198 201 204 207 210 213 216 219 222 225 228 231 234 237 240 243 246 249 252 255 258 261 264 267 270 273 276 279 282 285 288 291 294 297 300 303 306 309 312 315 318 321 324 327 330 333 336 339 342 345 348 351 354 357 360 363 366 369 372 375 378 381 384 387 390 393 396 399 402 405 408 411 414 417 420 423 426 429 432 435 438 441 444 447 450 453 456 459 462 465 468 471 474 477 480 483 486 489 492 495 498 501 504 507 510 513 516 519 522 525 528 531 534 537 540 543 546 549 552 555 558 561 564 
        </DataArray>
        <DataArray type="UInt8" Name="types" format="ascii">
          5 5 5 5 5 5 5 5 5 5 5 5 5 5 5 5 5 5 5 5 5 5 5 5 5 5 5 5 5 5 5 5 5 5 5 5 5 5 5 5 5 5 5 5 5 5 5 5 5 5 5 5 5 5 5 5 5 5 5 5 5 5 5 5 5 5 5 5 5 5 5 5 5 5 5 5 5 5 5 5 5 5 5 5 5 5 5 5 5 5 5 5 5 5 5 5 5 5 5 5 5 5 5 5 5 5 5 5 5 5 5 5 5 5 5 5 5 5 5 5 5 5 5 5 5 5 5 5 5 5 5 5 5 5 5 5 5 5 5 5 5 5 5 5 5 5 5 5 5 5 5 5 5 5 5 5 5 5 5 5 5 5 5 5 5 5 5 5 5 5 5 5 5 5 5 5 5 5 5 5 5 5 5 5 5 5 5 5 
        </DataArray>
      </Cells>
      <PointData Scalars="HEAD">
        <DataArray type="Float64" Name="HEAD" format="ascii">
          1.000000000000e+00 1.000000000000e+00 1.000000000000e+00 1.000000000000e+00 1.000000000000e+00 1.000000000000e+00 1.000000000000e+00 1.000000000000e+00 1.000000000000e+00 1.000000000000e+00 1.000000000000e+00 1.000000000000e+00 1.000000000000e+00 1.000000000000e+00 1.000000000000e+00 1.000000000000e+00 1.000000000000e+00 1.000000000000e+00 1.000000000000e+00 1.000000000000e+00 1.000000000000e+00 1.000000000000e+00 1.000000000000e+00 1.000000000000e+00 1.000000000000e+00 1.000000000000e+00 1.000000000000e+00 1.000000000000e+00 1.000000000000e+00 1.000000000000e+00 1.000000000000e+00 1.000000000000e+00 1.000000000000e+00 1.000000000000e+00 1.000000000000e+00 1.000000000000e+00 1.000000000000e+00 1.000000000000e+00 1.000000000000e+00 1.000000000000e+00 1.000000000000e+00 1.000000000000e+00 1.000000000000e+00 1.000000000000e+00 1.000000000000e+00 1.000000000000e+00 1.000000000000e+00 1.000000000000e+00 1.000000000000e+00 1.000000000000e+00 1.000000000000e+00 1.000000000000e+00 1.000000000000e+00 1.000000000000e+00 1.000000000000e+00 1.000000000000e+00 1.000000000000e+00 1.000000000000e+00 1.000000000000e+00 1.000000000000e+00 1.000000000000e+00 1.000000000000e+00 1.000000000000e+00 1.000000000000e+00 1.000000000000e+00 1.000000000000e+00 1.000000000000e+00 1.000000000000e+00 1.000000000000e+00 1.000000000000e+00 1.000000000000e+00 1.000000000000e+00 1.000000000000e+00 1.000000000000e+00 1.000000000000e+00 1.000000000000e+00 1.000000000000e+00 1.000000000000e+00 1.000000000000e+00 1.000000000000e+00 1.000000000000e+00 1.000000000000e+00 1.000000000000e+00 1.000000000000e+00 1.000000000000e+00 1.000000000000e+00 1.000000000000e+00 1.000000000000e+00 1.000000000000e+00 1.000000000000e+00 1.000000000000e+00 1.000000000000e+00 1.000000000000e+00 1.000000000000e+00 1.000000000000e+00 1.000000000000e+00 1.000000000000e+00 1.000000000000e+00 1.000000000000e+00 1.000000000000e+00 1.000000000000e+00 1.000000000000e+00 1.000000000000e+00 1.000000000000e+00 1.000000000000e+00 1.000000000000e+00 1.000000000000e+00 1.000000000000e+00 1.000000000000e+00 1.000000000000e+00 1.000000000000e+00 1.000000000000e+00 1.000000000000e+00 1.000000000000e+00 1.000000000000e+00 1.000000000000e+00 1.000000000000e+00 1.000000000000e+00 1.000000000000e+00 1.000000000000e+00 1.000000000000e+00 1.000000000000e+00 1.000000000000e+00 1.000000000000e+00 1.000000000000e+00 1.000000000000e+00 1.000000000000e+00 1.000000000000e+00 1.000000000000e+00 1.000000000000e+00 1.000000000000e+00 1.000000000000e+00 1.000000000000e+00 1.000000000000e+00 1.000000000000e+00 1.000000000000e+00 1.000000000000e+00 1.000000000000e+00 1.000000000000e+00 1.000000000000e+00 1.000000000000e+00 1.000000000000e+00 1.000000000000e+00 1.000000000000e+00 
        </DataArray>
      </PointData>
      <CellData>
        <DataArray type="Int32" Name="MatGroup" format="ascii">
          0 0 0 0 0 0 0 0 0 0 0 0 0 0 0 0 0 0 0 0 0 0 0 0 0 0 0 0 0 0 0 0 0 0 0 0 0 0 0 0 0 0 0 0 0 0 0 0 0 0 0 0 0 0 0 0 0 0 0 0 0 0 0 0 0 0 0 0 0 0 0 0 0 0 0 0 0 0 0 0 0 0 0 0 0 0 0 0 0 0 0 0 0 0 0 0 0 0 0 0 0 0 0 0 0 0 0 0 0 0 0 0 0 0 0 0 0 0 0 0 0 0 0 0 0 0 0 0 0 0 0 0 0 0 0 0 0 0 0 0 0 0 0 0 0 0 0 0 0 0 0 0 0 0 0 0 0 0 0 0 0 0 0 0 0 0 0 0 0 0 0 0 0 0 0 0 0 0 0 0 0 0 0 0 0 0 0 0 
        </DataArray>
      </CellData>
    </Piece>
  </UnstructuredGrid>
</VTKFile>
