<?xml version="1.0"?>
<VTKFile type="UnstructuredGrid" version="0.1" byte_order="LittleEndian">
  <UnstructuredGrid>
    <Piece NumberOfPoints="101" NumberOfCells="100">
      <Points>
        <DataArray type="Float64" NumberOfComponents="3" format="ascii">
          0.000000000000e+00 0.000000000000e+00 0.000000000000e+00
          5.000000000000e-03 0.000000000000e+00 0.000000000000e+00
          1.000000000000e-02 0.000000000000e+00 0.000000000000e+00
          1.500000000000e-02 0.000000000000e+00 0.000000000000e+00
          2.000000000000e-02 0.000000000000e+00 0.000000000000e+00
          2.500000000000e-02 0.000000000000e+00 0.000000000000e+00
          3.000000000000e-02 0.000000000000e+00 0.000000000000e+00
          3.500000000000e-02 0.000000000000e+00 0.000000000000e+00
          4.000000000000e-02 0.000000000000e+00 0.000000000000e+00
          4.500000000000e-02 0.000000000000e+00 0.000000000000e+00
          5.000000000000e-02 0.000000000000e+00 0.000000000000e+00
          5.500000000000e-02 0.000000000000e+00 0.000000000000e+00
          6.000000000000e-02 0.000000000000e+00 0.000000000000e+00
          6.500000000000e-02 0.000000000000e+00 0.000000000000e+00
          7.000000000000e-02 0.000000000000e+00 0.000000000000e+00
          7.500000000000e-02 0.000000000000e+00 0.000000000000e+00
          8.000000000000e-02 0.000000000000e+00 0.000000000000e+00
          8.500000000000e-02 0.000000000000e+00 0.000000000000e+00
          9.000000000000e-02 0.000000000000e+00 0.000000000000e+00
          9.500000000000e-02 0.000000000000e+00 0.000000000000e+00
          1.000000000000e-01 0.000000000000e+00 0.000000000000e+00
          1.050000000000e-01 0.000000000000e+00 0.000000000000e+00
          1.100000000000e-01 0.000000000000e+00 0.000000000000e+00
          1.150000000000e-01 0.000000000000e+00 0.000000000000e+00
          1.200000000000e-01 0.000000000000e+00 0.000000000000e+00
          1.250000000000e-01 0.000000000000e+00 0.000000000000e+00
          1.300000000000e-01 0.000000000000e+00 0.000000000000e+00
          1.350000000000e-01 0.000000000000e+00 0.000000000000e+00
          1.400000000000e-01 0.000000000000e+00 0.000000000000e+00
          1.450000000000e-01 0.000000000000e+00 0.000000000000e+00
          1.500000000000e-01 0.000000000000e+00 0.000000000000e+00
          1.550000000000e-01 0.000000000000e+00 0.000000000000e+00
          1.600000000000e-01 0.000000000000e+00 0.000000000000e+00
          1.650000000000e-01 0.000000000000e+00 0.000000000000e+00
          1.700000000000e-01 0.000000000000e+00 0.000000000000e+00
          1.750000000000e-01 0.000000000000e+00 0.000000000000e+00
          1.800000000000e-01 0.000000000000e+00 0.000000000000e+00
          1.850000000000e-01 0.000000000000e+00 0.000000000000e+00
          1.900000000000e-01 0.000000000000e+00 0.000000000000e+00
          1.950000000000e-01 0.000000000000e+00 0.000000000000e+00
          2.000000000000e-01 0.000000000000e+00 0.000000000000e+00
          2.050000000000e-01 0.000000000000e+00 0.000000000000e+00
          2.100000000000e-01 0.000000000000e+00 0.000000000000e+00
          2.150000000000e-01 0.000000000000e+00 0.000000000000e+00
          2.200000000000e-01 0.000000000000e+00 0.000000000000e+00
          2.250000000000e-01 0.000000000000e+00 0.000000000000e+00
          2.300000000000e-01 0.000000000000e+00 0.000000000000e+00
          2.350000000000e-01 0.000000000000e+00 0.000000000000e+00
          2.400000000000e-01 0.000000000000e+00 0.000000000000e+00
          2.450000000000e-01 0.000000000000e+00 0.000000000000e+00
          2.500000000000e-01 0.000000000000e+00 0.000000000000e+00
          2.550000000000e-01 0.000000000000e+00 0.000000000000e+00
          2.600000000000e-01 0.000000000000e+00 0.000000000000e+00
          2.650000000000e-01 0.000000000000e+00 0.000000000000e+00
          2.700000000000e-01 0.000000000000e+00 0.000000000000e+00
          2.750000000000e-01 0.000000000000e+00 0.000000000000e+00
          2.800000000000e-01 0.000000000000e+00 0.000000000000e+00
          2.850000000000e-01 0.000000000000e+00 0.000000000000e+00
          2.900000000000e-01 0.000000000000e+00 0.000000000000e+00
          2.950000000000e-01 0.000000000000e+00 0.000000000000e+00
          3.000000000000e-01 0.000000000000e+00 0.000000000000e+00
          3.050000000000e-01 0.000000000000e+00 0.000000000000e+00
          3.100000000000e-01 0.000000000000e+00 0.000000000000e+00
          3.150000000000e-01 0.000000000000e+00 0.000000000000e+00
          3.200000000000e-01 0.000000000000e+00 0.000000000000e+00
          3.250000000000e-01 0.000000000000e+00 0.000000000000e+00
          3.300000000000e-01 0.000000000000e+00 0.000000000000e+00
          3.350000000000e-01 0.000000000000e+00 0.000000000000e+00
          3.400000000000e-01 0.000000000000e+00 0.000000000000e+00
          3.450000000000e-01 0.000000000000e+00 0.000000000000e+00
          3.500000000000e-01 0.000000000000e+00 0.000000000000e+00
          3.550000000000e-01 0.000000000000e+00 0.000000000000e+00
          3.600000000000e-01 0.000000000000e+00 0.000000000000e+00
          3.650000000000e-01 0.000000000000e+00 0.000000000000e+00
          3.700000000000e-01 0.000000000000e+00 0.000000000000e+00
          3.750000000000e-01 0.000000000000e+00 0.000000000000e+00
          3.800000000000e-01 0.000000000000e+00 0.000000000000e+00
          3.850000000000e-01 0.000000000000e+00 0.000000000000e+00
          3.900000000000e-01 0.000000000000e+00 0.000000000000e+00
          3.950000000000e-01 0.000000000000e+00 0.000000000000e+00
          4.000000000000e-01 0.000000000000e+00 0.000000000000e+00
          4.050000000000e-01 0.000000000000e+00 0.000000000000e+00
          4.100000000000e-01 0.000000000000e+00 0.000000000000e+00
          4.150000000000e-01 0.000000000000e+00 0.000000000000e+00
          4.200000000000e-01 0.000000000000e+00 0.000000000000e+00
          4.250000000000e-01 0.000000000000e+00 0.000000000000e+00
          4.300000000000e-01 0.000000000000e+00 0.000000000000e+00
          4.350000000000e-01 0.000000000000e+00 0.000000000000e+00
          4.400000000000e-01 0.000000000000e+00 0.000000000000e+00
          4.450000000000e-01 0.000000000000e+00 0.000000000000e+00
          4.500000000000e-01 0.000000000000e+00 0.000000000000e+00
          4.550000000000e-01 0.000000000000e+00 0.000000000000e+00
          4.600000000000e-01 0.000000000000e+00 0.000000000000e+00
          4.650000000000e-01 0.000000000000e+00 0.000000000000e+00
          4.700000000000e-01 0.000000000000e+00 0.000000000000e+00
          4.750000000000e-01 0.000000000000e+00 0.000000000000e+00
          4.800000000000e-01 0.000000000000e+00 0.000000000000e+00
          4.850000000000e-01 0.000000000000e+00 0.000000000000e+00
          4.900000000000e-01 0.000000000000e+00 0.000000000000e+00
          4.950000000000e-01 0.000000000000e+00 0.000000000000e+00
          5.000000000000e-01 0.000000000000e+00 0.000000000000e+00
        </DataArray>
      </Points>
      <Cells>
        <DataArray type="Int32" Name="connectivity" format="ascii">
          0 1 
          2 3 
          4 5 
          6 7 
          8 9 
          10 11 
          12 13 
          14 15 
          16 17 
          18 19 
          20 21 
          22 23 
          24 25 
          26 27 
          28 29 
          30 31 
          32 33 
          34 35 
          36 37 
          38 39 
          40 41 
          42 43 
          44 45 
          46 47 
          48 49 
          50 51 
          52 53 
          54 55 
          56 57 
          58 59 
          60 61 
          62 63 
          64 65 
          66 67 
          68 69 
          70 71 
          72 73 
          74 75 
          76 77 
          78 79 
          80 81 
          82 83 
          84 85 
          86 87 
          88 89 
          90 91 
          92 93 
          94 95 
          96 97 
          98 99 
          1 2 
          3 4 
          5 6 
          7 8 
          9 10 
          11 12 
          13 14 
          15 16 
          17 18 
          19 20 
          21 22 
          23 24 
          25 26 
          27 28 
          29 30 
          31 32 
          33 34 
          35 36 
          37 38 
          39 40 
          41 42 
          43 44 
          45 46 
          47 48 
          49 50 
          51 52 
          53 54 
          55 56 
          57 58 
          59 60 
          61 62 
          63 64 
          65 66 
          67 68 
          69 70 
          71 72 
          73 74 
          75 76 
          77 78 
          79 80 
          81 82 
          83 84 
          85 86 
          87 88 
          89 90 
          91 92 
          93 94 
          95 96 
          97 98 
          99 100 
        </DataArray>
        <DataArray type="Int32" Name="offsets" format="ascii">
          2 4 6 8 10 12 14 16 18 20 22 24 26 28 30 32 34 36 38 40 42 44 46 48 50 52 54 56 58 60 62 64 66 68 70 72 74 76 78 80 82 84 86 88 90 92 94 96 98 100 102 104 106 108 110 112 114 116 118 120 122 124 126 128 130 132 134 136 138 140 142 144 146 148 150 152 154 156 158 160 162 164 166 168 170 172 174 176 178 180 182 184 186 188 190 192 194 196 198 200 
        </DataArray>
        <DataArray type="UInt8" Name="types" format="ascii">
          3 3 3 3 3 3 3 3 3 3 3 3 3 3 3 3 3 3 3 3 3 3 3 3 3 3 3 3 3 3 3 3 3 3 3 3 3 3 3 3 3 3 3 3 3 3 3 3 3 3 3 3 3 3 3 3 3 3 3 3 3 3 3 3 3 3 3 3 3 3 3 3 3 3 3 3 3 3 3 3 3 3 3 3 3 3 3 3 3 3 3 3 3 3 3 3 3 3 3 3 
        </DataArray>
      </Cells>
      <PointData Scalars="HEAD">
        <DataArray type="Float64" Name="HEAD" format="ascii">
          1.000000000000e+00 1.000000000000e+00 1.000000000000e+00 1.000000000000e+00 1.000000000000e+00 1.000000000000e+00 1.000000000000e+00 1.000000000000e+00 1.000000000000e+00 1.000000000000e+00 1.000000000000e+00 1.000000000000e+00 1.000000000000e+00 1.000000000000e+00 1.000000000000e+00 1.000000000000e+00 1.000000000000e+00 1.000000000000e+00 1.000000000000e+00 1.000000000000e+00 1.000000000000e+00 1.000000000000e+00 1.000000000000e+00 1.000000000000e+00 1.000000000000e+00 1.000000000000e+00 1.000000000000e+00 1.000000000000e+00 1.000000000000e+00 1.000000000000e+00 1.000000000000e+00 1.000000000000e+00 1.000000000000e+00 1.000000000000e+00 1.000000000000e+00 1.000000000000e+00 1.000000000000e+00 1.000000000000e+00 1.000000000000e+00 1.000000000000e+00 1.000000000000e+00 1.000000000000e+00 1.000000000000e+00 1.000000000000e+00 1.000000000000e+00 1.000000000000e+00 1.000000000000e+00 1.000000000000e+00 1.000000000000e+00 1.000000000000e+00 1.000000000000e+00 1.000000000000e+00 1.000000000000e+00 1.000000000000e+00 1.000000000000e+00 1.000000000000e+00 1.000000000000e+00 1.000000000000e+00 1.000000000000e+00 1.000000000000e+00 1.000000000000e+00 1.000000000000e+00 1.000000000000e+00 1.000000000000e+00 1.000000000000e+00 1.000000000000e+00 1.000000000000e+00 1.000000000000e+00 1.000000000000e+00 1.000000000000e+00 1.000000000000e+00 1.000000000000e+00 1.000000000000e+00 1.000000000000e+00 1.000000000000e+00 1.000000000000e+00 1.000000000000e+00 1.000000000000e+00 1.000000000000e+00 1.000000000000e+00 1.000000000000e+00 1.000000000000e+00 1.000000000000e+00 1.000000000000e+00 1.000000000000e+00 1.000000000000e+00 1.000000000000e+00 1.000000000000e+00 1.000000000000e+00 1.000000000000e+00 1.000000000000e+00 1.000000000000e+00 1.000000000000e+00 1.000000000000e+00 1.000000000000e+00 1.000000000000e+00 1.000000000000e+00 1.000000000000e+00 1.000000000000e+00 1.000000000000e+00 1.000000000000e+00 
        </DataArray>
      </PointData>
      <CellData>
        <DataArray type="Int32" Name="MatGroup" format="ascii">
          0 0 0 0 0 0 0 0 0 0 0 0 0 0 0 0 0 0 0 0 0 0 0 0 0 0 0 0 0 0 0 0 0 0 0 0 0 0 0 0 0 0 0 0 0 0 0 0 0 0 0 0 0 0 0 0 0 0 0 0 0 0 0 0 0 0 0 0 0 0 0 0 0 0 0 0 0 0 0 0 0 0 0 0 0 0 0 0 0 0 0 0 0 0 0 0 0 0 0 0 
        </DataArray>
      </CellData>
    </Piece>
  </UnstructuredGrid>
</VTKFile>
