<?xml version="1.0"?>
<VTKFile type="UnstructuredGrid" version="0.1" byte_order="LittleEndian">
  <UnstructuredGrid>
    <Piece NumberOfPoints="123" NumberOfCells="160">
      <Points>
        <DataArray type="Float64" NumberOfComponents="3" format="ascii">
          0.000000000000e+00 0.000000000000e+00 0.000000000000e+00
          1.250000000000e-02 0.000000000000e+00 0.000000000000e+00
          1.250000000000e-02 1.000000000000e-02 0.000000000000e+00
          0.000000000000e+00 1.000000000000e-02 0.000000000000e+00
          2.500000000000e-02 0.000000000000e+00 0.000000000000e+00
          2.500000000000e-02 1.000000000000e-02 0.000000000000e+00
          3.750000000000e-02 0.000000000000e+00 0.000000000000e+00
          3.750000000000e-02 1.000000000000e-02 0.000000000000e+00
          5.000000000000e-02 0.000000000000e+00 0.000000000000e+00
          5.000000000000e-02 1.000000000000e-02 0.000000000000e+00
          6.250000000000e-02 0.000000000000e+00 0.000000000000e+00
          6.250000000000e-02 1.000000000000e-02 0.000000000000e+00
          7.500000000000e-02 0.000000000000e+00 0.000000000000e+00
          7.500000000000e-02 1.000000000000e-02 0.000000000000e+00
          8.750000000000e-02 0.000000000000e+00 0.000000000000e+00
          8.750000000000e-02 1.000000000000e-02 0.000000000000e+00
          1.000000000000e-01 0.000000000000e+00 0.000000000000e+00
          1.000000000000e-01 1.000000000000e-02 0.000000000000e+00
          1.125000000000e-01 0.000000000000e+00 0.000000000000e+00
          1.125000000000e-01 1.000000000000e-02 0.000000000000e+00
          1.250000000000e-01 0.000000000000e+00 0.000000000000e+00
          1.250000000000e-01 1.000000000000e-02 0.000000000000e+00
          1.375000000000e-01 0.000000000000e+00 0.000000000000e+00
          1.375000000000e-01 1.000000000000e-02 0.000000000000e+00
          1.500000000000e-01 0.000000000000e+00 0.000000000000e+00
          1.500000000000e-01 1.000000000000e-02 0.000000000000e+00
          1.625000000000e-01 0.000000000000e+00 0.000000000000e+00
          1.625000000000e-01 1.000000000000e-02 0.000000000000e+00
          1.750000000000e-01 0.000000000000e+00 0.000000000000e+00
          1.750000000000e-01 1.000000000000e-02 0.000000000000e+00
          1.875000000000e-01 0.000000000000e+00 0.000000000000e+00
          1.875000000000e-01 1.000000000000e-02 0.000000000000e+00
          2.000000000000e-01 0.000000000000e+00 0.000000000000e+00
          2.000000000000e-01 1.000000000000e-02 0.000000000000e+00
          2.125000000000e-01 0.000000000000e+00 0.000000000000e+00
          2.125000000000e-01 1.000000000000e-02 0.000000000000e+00
          2.250000000000e-01 0.000000000000e+00 0.000000000000e+00
          2.250000000000e-01 1.000000000000e-02 0.000000000000e+00
          2.375000000000e-01 0.000000000000e+00 0.000000000000e+00
          2.375000000000e-01 1.000000000000e-02 0.000000000000e+00
          2.500000000000e-01 0.000000000000e+00 0.000000000000e+00
          2.500000000000e-01 1.000000000000e-02 0.000000000000e+00
          2.625000000000e-01 0.000000000000e+00 0.000000000000e+00
          2.625000000000e-01 1.000000000000e-02 0.000000000000e+00
          2.750000000000e-01 0.000000000000e+00 0.000000000000e+00
          2.750000000000e-01 1.000000000000e-02 0.000000000000e+00
          2.875000000000e-01 0.000000000000e+00 0.000000000000e+00
          2.875000000000e-01 1.000000000000e-02 0.000000000000e+00
          3.000000000000e-01 0.000000000000e+00 0.000000000000e+00
          3.000000000000e-01 1.000000000000e-02 0.000000000000e+00
          3.125000000000e-01 0.000000000000e+00 0.000000000000e+00
          3.125000000000e-01 1.000000000000e-02 0.000000000000e+00
          3.250000000000e-01 0.000000000000e+00 0.000000000000e+00
          3.250000000000e-01 1.000000000000e-02 0.000000000000e+00
          3.375000000000e-01 0.000000000000e+00 0.000000000000e+00
          3.375000000000e-01 1.000000000000e-02 0.000000000000e+00
          3.500000000000e-01 0.000000000000e+00 0.000000000000e+00
          3.500000000000e-01 1.000000000000e-02 0.000000000000e+00
          3.625000000000e-01 0.000000000000e+00 0.000000000000e+00
          3.625000000000e-01 1.000000000000e-02 0.000000000000e+00
          3.750000000000e-01 0.000000000000e+00 0.000000000000e+00
          3.750000000000e-01 1.000000000000e-02 0.000000000000e+00
          3.875000000000e-01 0.000000000000e+00 0.000000000000e+00
          3.875000000000e-01 1.000000000000e-02 0.000000000000e+00
          4.000000000000e-01 0.000000000000e+00 0.000000000000e+00
          4.000000000000e-01 1.000000000000e-02 0.000000000000e+00
          4.125000000000e-01 0.000000000000e+00 0.000000000000e+00
          4.125000000000e-01 1.000000000000e-02 0.000000000000e+00
          4.250000000000e-01 0.000000000000e+00 0.000000000000e+00
          4.250000000000e-01 1.000000000000e-02 0.000000000000e+00
          4.375000000000e-01 0.000000000000e+00 0.000000000000e+00
          4.375000000000e-01 1.000000000000e-02 0.000000000000e+00
          4.500000000000e-01 0.000000000000e+00 0.000000000000e+00
          4.500000000000e-01 1.000000000000e-02 0.000000000000e+00
          4.625000000000e-01 0.000000000000e+00 0.000000000000e+00
          4.625000000000e-01 1.000000000000e-02 0.000000000000e+00
          4.750000000000e-01 0.000000000000e+00 0.000000000000e+00
          4.750000000000e-01 1.000000000000e-02 0.000000000000e+00
          4.875000000000e-01 0.000000000000e+00 0.000000000000e+00
          4.875000000000e-01 1.000000000000e-02 0.000000000000e+00
          5.000000000000e-01 0.000000000000e+00 0.000000000000e+00
          5.000000000000e-01 1.000000000000e-02 0.000000000000e+00
          1.250000000000e-02 2.000000000000e-02 0.000000000000e+00
          0.000000000000e+00 2.000000000000e-02 0.000000000000e+00
          2.500000000000e-02 2.000000000000e-02 0.000000000000e+00
          3.750000000000e-02 2.000000000000e-02 0.000000000000e+00
          5.000000000000e-02 2.000000000000e-02 0.000000000000e+00
          6.250000000000e-02 2.000000000000e-02 0.000000000000e+00
          7.500000000000e-02 2.000000000000e-02 0.000000000000e+00
          8.750000000000e-02 2.000000000000e-02 0.000000000000e+00
          1.000000000000e-01 2.000000000000e-02 0.000000000000e+00
          1.125000000000e-01 2.000000000000e-02 0.000000000000e+00
          1.250000000000e-01 2.000000000000e-02 0.000000000000e+00
          1.375000000000e-01 2.000000000000e-02 0.000000000000e+00
          1.500000000000e-01 2.000000000000e-02 0.000000000000e+00
          1.625000000000e-01 2.000000000000e-02 0.000000000000e+00
          1.750000000000e-01 2.000000000000e-02 0.000000000000e+00
          1.875000000000e-01 2.000000000000e-02 0.000000000000e+00
          2.000000000000e-01 2.000000000000e-02 0.000000000000e+00
          2.125000000000e-01 2.000000000000e-02 0.000000000000e+00
          2.250000000000e-01 2.000000000000e-02 0.000000000000e+00
          2.375000000000e-01 2.000000000000e-02 0.000000000000e+00
          2.500000000000e-01 2.000000000000e-02 0.000000000000e+00
          2.625000000000e-01 2.000000000000e-02 0.000000000000e+00
          2.750000000000e-01 2.000000000000e-02 0.000000000000e+00
          2.875000000000e-01 2.000000000000e-02 0.000000000000e+00
          3.000000000000e-01 2.000000000000e-02 0.000000000000e+00
          3.125000000000e-01 2.000000000000e-02 0.000000000000e+00
          3.250000000000e-01 2.000000000000e-02 0.000000000000e+00
          3.375000000000e-01 2.000000000000e-02 0.000000000000e+00
          3.500000000000e-01 2.000000000000e-02 0.000000000000e+00
          3.625000000000e-01 2.000000000000e-02 0.000000000000e+00
          3.750000000000e-01 2.000000000000e-02 0.000000000000e+00
          3.875000000000e-01 2.000000000000e-02 0.000000000000e+00
          4.000000000000e-01 2.000000000000e-02 0.000000000000e+00
          4.125000000000e-01 2.000000000000e-02 0.000000000000e+00
          4.250000000000e-01 2.000000000000e-02 0.000000000000e+00
          4.375000000000e-01 2.000000000000e-02 0.000000000000e+00
          4.500000000000e-01 2.000000000000e-02 0.000000000000e+00
          4.625000000000e-01 2.000000000000e-02 0.000000000000e+00
          4.750000000000e-01 2.000000000000e-02 0.000000000000e+00
          4.875000000000e-01 2.000000000000e-02 0.000000000000e+00
          5.000000000000e-01 2.000000000000e-02 0.000000000000e+00
        </DataArray>
      </Points>
      <Cells>
        <DataArray type="Int32" Name="connectivity" format="ascii">
          0 1 2 
          0 2 3 
          1 4 5 
          1 5 2 
          4 6 7 
          4 7 5 
          6 8 9 
          6 9 7 
          8 10 11 
          8 11 9 
          10 12 13 
          10 13 11 
          12 14 15 
          12 15 13 
          14 16 17 
          14 17 15 
          16 18 19 
          16 19 17 
          18 20 21 
          18 21 19 
          20 22 23 
          20 23 21 
          22 24 25 
          22 25 23 
          24 26 27 
          24 27 25 
          26 28 29 
          26 29 27 
          28 30 31 
          28 31 29 
          30 32 33 
          30 33 31 
          32 34 35 
          32 35 33 
          34 36 37 
          34 37 35 
          36 38 39 
          36 39 37 
          38 40 41 
          38 41 39 
          40 42 43 
          40 43 41 
          42 44 45 
          42 45 43 
          44 46 47 
          44 47 45 
          46 48 49 
          46 49 47 
          48 50 51 
          48 51 49 
          50 52 53 
          50 53 51 
          52 54 55 
          52 55 53 
          54 56 57 
          54 57 55 
          56 58 59 
          56 59 57 
          58 60 61 
          58 61 59 
          60 62 63 
          60 63 61 
          62 64 65 
          62 65 63 
          64 66 67 
          64 67 65 
          66 68 69 
          66 69 67 
          68 70 71 
          68 71 69 
          70 72 73 
          70 73 71 
          72 74 75 
          72 75 73 
          74 76 77 
          74 77 75 
          76 78 79 
          76 79 77 
          78 80 81 
          78 81 79 
          3 2 82 
          3 82 83 
          2 5 84 
          2 84 82 
          5 7 85 
          5 85 84 
          7 9 86 
          7 86 85 
          9 11 87 
          9 87 86 
          11 13 88 
          11 88 87 
          13 15 89 
          13 89 88 
          15 17 90 
          15 90 89 
          17 19 91 
          17 91 90 
          19 21 92 
          19 92 91 
          21 23 93 
          21 93 92 
          23 25 94 
          23 94 93 
          25 27 95 
          25 95 94 
          27 29 96 
          27 96 95 
          29 31 97 
          29 97 96 
          31 33 98 
          31 98 97 
          33 35 99 
          33 99 98 
          35 37 100 
          35 100 99 
          37 39 101 
          37 101 100 
          39 41 102 
          39 102 101 
          41 43 103 
          41 103 102 
          43 45 104 
          43 104 103 
          45 47 105 
          45 105 104 
          47 49 106 
          47 106 105 
          49 51 107 
          49 107 106 
          51 53 108 
          51 108 107 
          53 55 109 
          53 109 108 
          55 57 110 
          55 110 109 
          57 59 111 
          57 111 110 
          59 61 112 
          59 112 111 
          61 63 113 
          61 113 112 
          63 65 114 
          63 114 113 
          65 67 115 
          65 115 114 
          67 69 116 
          67 116 115 
          69 71 117 
          69 117 116 
          71 73 118 
          71 118 117 
          73 75 119 
          73 119 118 
          75 77 120 
          75 120 119 
          77 79 121 
          77 121 120 
          79 81 122 
          79 122 121 
        </DataArray>
        <DataArray type="Int32" Name="offsets" format="ascii">
          3 6 9 12 15 18 21 24 27 30 33 36 39 42 45 48 51 54 57 60 63 66 69 72 75 78 81 84 87 90 93 96 99 102 105 108 111 114 117 120 123 126 129 132 135 138 141 144 147 150 153 156 159 162 165 168 171 174 177 180 183 186 189 192 195 198 201 204 207 210 213 216 219 222 225 228 231 234 237 240 243 246 249 252 255 258 261 264 267 270 273 276 279 282 285 288 291 294 297 300 303 306 309 312 315 318 321 324 327 330 333 336 339 342 345 348 351 354 357 360 363 366 369 372 375 378 381 384 387 390 393 396 399 402 405 408 411 414 417 420 423 426 429 432 435 438 441 444 447 450 453 456 459 462 465 468 471 474 477 480 
        </DataArray>
        <DataArray type="UInt8" Name="types" format="ascii">
          5 5 5 5 5 5 5 5 5 5 5 5 5 5 5 5 5 5 5 5 5 5 5 5 5 5 5 5 5 5 5 5 5 5 5 5 5 5 5 5 5 5 5 5 5 5 5 5 5 5 5 5 5 5 5 5 5 5 5 5 5 5 5 5 5 5 5 5 5 5 5 5 5 5 5 5 5 5 5 5 5 5 5 5 5 5 5 5 5 5 5 5 5 5 5 5 5 5 5 5 5 5 5 5 5 5 5 5 5 5 5 5 5 5 5 5 5 5 5 5 5 5 5 5 5 5 5 5 5 5 5 5 5 5 5 5 5 5 5 5 5 5 5 5 5 5 5 5 5 5 5 5 5 5 5 5 5 5 5 5 
        </DataArray>
      </Cells>
      <PointData Scalars="HEAD">
        <DataArray type="Float64" Name="HEAD" format="ascii">
          1.000000000000e+00 1.000000000000e+00 1.000000000000e+00 1.000000000000e+00 1.000000000000e+00 1.000000000000e+00 1.000000000000e+00 1.000000000000e+00 1.000000000000e+00 1.000000000000e+00 1.000000000000e+00 1.000000000000e+00 1.000000000000e+00 1.000000000000e+00 1.000000000000e+00 1.000000000000e+00 1.000000000000e+00 1.000000000000e+00 1.000000000000e+00 1.000000000000e+00 1.000000000000e+00 1.000000000000e+00 1.000000000000e+00 1.000000000000e+00 1.000000000000e+00 1.000000000000e+00 1.000000000000e+00 1.000000000000e+00 1.000000000000e+00 1.000000000000e+00 1.000000000000e+00 1.000000000000e+00 1.000000000000e+00 1.000000000000e+00 1.000000000000e+00 1.000000000000e+00 1.000000000000e+00 1.000000000000e+00 1.000000000000e+00 1.000000000000e+00 1.000000000000e+00 1.000000000000e+00 1.000000000000e+00 1.000000000000e+00 1.000000000000e+00 1.000000000000e+00 1.000000000000e+00 1.000000000000e+00 1.000000000000e+00 1.000000000000e+00 1.000000000000e+00 1.000000000000e+00 1.000000000000e+00 1.000000000000e+00 1.000000000000e+00 1.000000000000e+00 1.000000000000e+00 1.000000000000e+00 1.000000000000e+00 1.000000000000e+00 1.000000000000e+00 1.000000000000e+00 1.000000000000e+00 1.000000000000e+00 1.000000000000e+00 1.000000000000e+00 1.000000000000e+00 1.000000000000e+00 1.000000000000e+00 1.000000000000e+00 1.000000000000e+00 1.000000000000e+00 1.000000000000e+00 1.000000000000e+00 1.000000000000e+00 1.000000000000e+00 1.000000000000e+00 1.000000000000e+00 1.000000000000e+00 1.000000000000e+00 1.000000000000e+00 1.000000000000e+00 1.000000000000e+00 1.000000000000e+00 1.000000000000e+00 1.000000000000e+00 1.000000000000e+00 1.000000000000e+00 1.000000000000e+00 1.000000000000e+00 1.000000000000e+00 1.000000000000e+00 1.000000000000e+00 1.000000000000e+00 1.000000000000e+00 1.000000000000e+00 1.000000000000e+00 1.000000000000e+00 1.000000000000e+00 1.000000000000e+00 1.000000000000e+00 1.000000000000e+00 1.000000000000e+00 1.000000000000e+00 1.000000000000e+00 1.000000000000e+00 1.000000000000e+00 1.000000000000e+00 1.000000000000e+00 1.000000000000e+00 1.000000000000e+00 1.000000000000e+00 1.000000000000e+00 1.000000000000e+00 1.000000000000e+00 1.000000000000e+00 1.000000000000e+00 1.000000000000e+00 1.000000000000e+00 1.000000000000e+00 1.000000000000e+00 1.000000000000e+00 1.000000000000e+00 
        </DataArray>
        <DataArray type="Float64" Name="eta_0" format="ascii">
          0.000000000000e+00 0.000000000000e+00 0.000000000000e+00 0.000000000000e+00 0.000000000000e+00 0.000000000000e+00 0.000000000000e+00 0.000000000000e+00 0.000000000000e+00 0.000000000000e+00 0.000000000000e+00 0.000000000000e+00 0.000000000000e+00 0.000000000000e+00 0.000000000000e+00 0.000000000000e+00 0.000000000000e+00 0.000000000000e+00 0.000000000000e+00 0.000000000000e+00 0.000000000000e+00 0.000000000000e+00 0.000000000000e+00 0.000000000000e+00 0.000000000000e+00 0.000000000000e+00 0.000000000000e+00 0.000000000000e+00 0.000000000000e+00 0.000000000000e+00 0.000000000000e+00 0.000000000000e+00 0.000000000000e+00 0.000000000000e+00 0.000000000000e+00 0.000000000000e+00 0.000000000000e+00 0.000000000000e+00 0.000000000000e+00 0.000000000000e+00 0.000000000000e+00 0.000000000000e+00 0.000000000000e+00 0.000000000000e+00 0.000000000000e+00 0.000000000000e+00 0.000000000000e+00 0.000000000000e+00 0.000000000000e+00 0.000000000000e+00 0.000000000000e+00 0.000000000000e+00 0.000000000000e+00 0.000000000000e+00 0.000000000000e+00 0.000000000000e+00 0.000000000000e+00 0.000000000000e+00 0.000000000000e+00 0.000000000000e+00 0.000000000000e+00 0.000000000000e+00 0.000000000000e+00 0.000000000000e+00 0.000000000000e+00 0.000000000000e+00 0.000000000000e+00 0.000000000000e+00 0.000000000000e+00 0.000000000000e+00 0.000000000000e+00 0.000000000000e+00 0.000000000000e+00 0.000000000000e+00 0.000000000000e+00 0.000000000000e+00 0.000000000000e+00 0.000000000000e+00 0.000000000000e+00 0.000000000000e+00 0.000000000000e+00 0.000000000000e+00 0.000000000000e+00 0.000000000000e+00 0.000000000000e+00 0.000000000000e+00 0.000000000000e+00 0.000000000000e+00 0.000000000000e+00 0.000000000000e+00 0.000000000000e+00 0.000000000000e+00 0.000000000000e+00 0.000000000000e+00 0.000000000000e+00 0.000000000000e+00 0.000000000000e+00 0.000000000000e+00 0.000000000000e+00 0.000000000000e+00 0.000000000000e+00 0.000000000000e+00 0.000000000000e+00 0.000000000000e+00 0.000000000000e+00 0.000000000000e+00 0.000000000000e+00 0.000000000000e+00 0.000000000000e+00 0.000000000000e+00 0.000000000000e+00 0.000000000000e+00 0.000000000000e+00 0.000000000000e+00 0.000000000000e+00 0.000000000000e+00 0.000000000000e+00 0.000000000000e+00 0.000000000000e+00 0.000000000000e+00 0.000000000000e+00 0.000000000000e+00 0.000000000000e+00 
        </DataArray>
        <DataArray type="Float64" Name="eta_1" format="ascii">
          0.000000000000e+00 0.000000000000e+00 0.000000000000e+00 0.000000000000e+00 0.000000000000e+00 0.000000000000e+00 0.000000000000e+00 0.000000000000e+00 0.000000000000e+00 0.000000000000e+00 0.000000000000e+00 0.000000000000e+00 0.000000000000e+00 0.000000000000e+00 0.000000000000e+00 0.000000000000e+00 0.000000000000e+00 0.000000000000e+00 0.000000000000e+00 0.000000000000e+00 0.000000000000e+00 0.000000000000e+00 0.000000000000e+00 0.000000000000e+00 0.000000000000e+00 0.000000000000e+00 0.000000000000e+00 0.000000000000e+00 0.000000000000e+00 0.000000000000e+00 0.000000000000e+00 0.000000000000e+00 0.000000000000e+00 0.000000000000e+00 0.000000000000e+00 0.000000000000e+00 0.000000000000e+00 0.000000000000e+00 0.000000000000e+00 0.000000000000e+00 0.000000000000e+00 0.000000000000e+00 0.000000000000e+00 0.000000000000e+00 0.000000000000e+00 0.000000000000e+00 0.000000000000e+00 0.000000000000e+00 0.000000000000e+00 0.000000000000e+00 0.000000000000e+00 0.000000000000e+00 0.000000000000e+00 0.000000000000e+00 0.000000000000e+00 0.000000000000e+00 0.000000000000e+00 0.000000000000e+00 0.000000000000e+00 0.000000000000e+00 0.000000000000e+00 0.000000000000e+00 0.000000000000e+00 0.000000000000e+00 0.000000000000e+00 0.000000000000e+00 0.000000000000e+00 0.000000000000e+00 0.000000000000e+00 0.000000000000e+00 0.000000000000e+00 0.000000000000e+00 0.000000000000e+00 0.000000000000e+00 0.000000000000e+00 0.000000000000e+00 0.000000000000e+00 0.000000000000e+00 0.000000000000e+00 0.000000000000e+00 0.000000000000e+00 0.000000000000e+00 0.000000000000e+00 0.000000000000e+00 0.000000000000e+00 0.000000000000e+00 0.000000000000e+00 0.000000000000e+00 0.000000000000e+00 0.000000000000e+00 0.000000000000e+00 0.000000000000e+00 0.000000000000e+00 0.000000000000e+00 0.000000000000e+00 0.000000000000e+00 0.000000000000e+00 0.000000000000e+00 0.000000000000e+00 0.000000000000e+00 0.000000000000e+00 0.000000000000e+00 0.000000000000e+00 0.000000000000e+00 0.000000000000e+00 0.000000000000e+00 0.000000000000e+00 0.000000000000e+00 0.000000000000e+00 0.000000000000e+00 0.000000000000e+00 0.000000000000e+00 0.000000000000e+00 0.000000000000e+00 0.000000000000e+00 0.000000000000e+00 0.000000000000e+00 0.000000000000e+00 0.000000000000e+00 0.000000000000e+00 0.000000000000e+00 0.000000000000e+00 0.000000000000e+00 
        </DataArray>
        <DataArray type="Float64" Name="eta_2" format="ascii">
          0.000000000000e+00 0.000000000000e+00 0.000000000000e+00 0.000000000000e+00 0.000000000000e+00 0.000000000000e+00 0.000000000000e+00 0.000000000000e+00 0.000000000000e+00 0.000000000000e+00 0.000000000000e+00 0.000000000000e+00 0.000000000000e+00 0.000000000000e+00 0.000000000000e+00 0.000000000000e+00 0.000000000000e+00 0.000000000000e+00 0.000000000000e+00 0.000000000000e+00 0.000000000000e+00 0.000000000000e+00 0.000000000000e+00 0.000000000000e+00 0.000000000000e+00 0.000000000000e+00 0.000000000000e+00 0.000000000000e+00 0.000000000000e+00 0.000000000000e+00 0.000000000000e+00 0.000000000000e+00 0.000000000000e+00 0.000000000000e+00 0.000000000000e+00 0.000000000000e+00 0.000000000000e+00 0.000000000000e+00 0.000000000000e+00 0.000000000000e+00 0.000000000000e+00 0.000000000000e+00 0.000000000000e+00 0.000000000000e+00 0.000000000000e+00 0.000000000000e+00 0.000000000000e+00 0.000000000000e+00 0.000000000000e+00 0.000000000000e+00 0.000000000000e+00 0.000000000000e+00 0.000000000000e+00 0.000000000000e+00 0.000000000000e+00 0.000000000000e+00 0.000000000000e+00 0.000000000000e+00 0.000000000000e+00 0.000000000000e+00 0.000000000000e+00 0.000000000000e+00 0.000000000000e+00 0.000000000000e+00 0.000000000000e+00 0.000000000000e+00 0.000000000000e+00 0.000000000000e+00 0.000000000000e+00 0.000000000000e+00 0.000000000000e+00 0.000000000000e+00 0.000000000000e+00 0.000000000000e+00 0.000000000000e+00 0.000000000000e+00 0.000000000000e+00 0.000000000000e+00 0.000000000000e+00 0.000000000000e+00 0.000000000000e+00 0.000000000000e+00 0.000000000000e+00 0.000000000000e+00 0.000000000000e+00 0.000000000000e+00 0.000000000000e+00 0.000000000000e+00 0.000000000000e+00 0.000000000000e+00 0.000000000000e+00 0.000000000000e+00 0.000000000000e+00 0.000000000000e+00 0.000000000000e+00 0.000000000000e+00 0.000000000000e+00 0.000000000000e+00 0.000000000000e+00 0.000000000000e+00 0.000000000000e+00 0.000000000000e+00 0.000000000000e+00 0.000000000000e+00 0.000000000000e+00 0.000000000000e+00 0.000000000000e+00 0.000000000000e+00 0.000000000000e+00 0.000000000000e+00 0.000000000000e+00 0.000000000000e+00 0.000000000000e+00 0.000000000000e+00 0.000000000000e+00 0.000000000000e+00 0.000000000000e+00 0.000000000000e+00 0.000000000000e+00 0.000000000000e+00 0.000000000000e+00 0.000000000000e+00 0.000000000000e+00 
        </DataArray>
      </PointData>
      <CellData>
        <DataArray type="Int32" Name="MatGroup" format="ascii">
          0 0 0 0 0 0 0 0 0 0 0 0 0 0 0 0 0 0 0 0 0 0 0 0 0 0 0 0 0 0 0 0 0 0 0 0 0 0 0 0 0 0 0 0 0 0 0 0 0 0 0 0 0 0 0 0 0 0 0 0 0 0 0 0 0 0 0 0 0 0 0 0 0 0 0 0 0 0 0 0 0 0 0 0 0 0 0 0 0 0 0 0 0 0 0 0 0 0 0 0 0 0 0 0 0 0 0 0 0 0 0 0 0 0 0 0 0 0 0 0 0 0 0 0 0 0 0 0 0 0 0 0 0 0 0 0 0 0 0 0 0 0 0 0 0 0 0 0 0 0 0 0 0 0 0 0 0 0 0 0 
        </DataArray>
      </CellData>
    </Piece>
  </UnstructuredGrid>
</VTKFile>
